N -t 1.000000 -n 0 -e 0.455000
N -t 1.000000 -n 1 -e 0.455000
N -t 1.000000 -n 2 -e 0.455000
N -t 1.000000 -n 3 -e 0.455000
N -t 1.000000 -n 4 -e 0.455000
N -t 11.000000 -n 0 -e 0.455000
N -t 11.000000 -n 1 -e 0.455000
N -t 11.000000 -n 2 -e 0.455000
N -t 11.000000 -n 3 -e 0.455000
N -t 11.000000 -n 4 -e 0.455000
N -t 21.000000 -n 0 -e 0.455000
N -t 21.000000 -n 1 -e 0.455000
N -t 21.000000 -n 2 -e 0.455000
N -t 21.000000 -n 3 -e 0.455000
N -t 21.000000 -n 4 -e 0.455000
N -t 31.000000 -n 0 -e 0.455000
N -t 31.000000 -n 1 -e 0.455000
N -t 31.000000 -n 2 -e 0.455000
N -t 31.000000 -n 3 -e 0.455000
N -t 31.000000 -n 4 -e 0.455000
N -t 41.000000 -n 0 -e 0.455000
N -t 41.000000 -n 1 -e 0.455000
N -t 41.000000 -n 2 -e 0.455000
N -t 41.000000 -n 3 -e 0.455000
N -t 41.000000 -n 4 -e 0.455000
N -t 51.000000 -n 0 -e 0.455000
N -t 51.000000 -n 1 -e 0.455000
N -t 51.000000 -n 2 -e 0.455000
N -t 51.000000 -n 3 -e 0.455000
N -t 51.000000 -n 4 -e 0.455000
N -t 61.000000 -n 0 -e 0.455000
N -t 61.000000 -n 1 -e 0.455000
N -t 61.000000 -n 2 -e 0.455000
N -t 61.000000 -n 3 -e 0.455000
N -t 61.000000 -n 4 -e 0.455000
N -t 71.000000 -n 0 -e 0.455000
N -t 71.000000 -n 1 -e 0.455000
N -t 71.000000 -n 2 -e 0.455000
N -t 71.000000 -n 3 -e 0.455000
N -t 71.000000 -n 4 -e 0.455000
N -t 81.000000 -n 0 -e 0.455000
N -t 81.000000 -n 1 -e 0.455000
N -t 81.000000 -n 2 -e 0.455000
N -t 81.000000 -n 3 -e 0.455000
N -t 81.000000 -n 4 -e 0.455000
s 82.557023746 _2_ AGT  --- 0 cbr 512 [0 0 0 0] [energy 0.455000] ------- [2:0 3:0 32 0] [0] 0 2
s 82.557098746 _2_ MAC  --- 0 AODV 104 [0 ffffffff 2 800] [energy 0.455000] ------- [2:255 -1:255 1 0] [0x2 0 1 [3 0] [2 1]] (REQUEST)
r 82.557514941 _4_ MAC  --- 0 AODV 52 [0 ffffffff 2 800] [energy 0.454875] ------- [2:255 -1:255 1 0] [0x2 0 1 [3 0] [2 1]] (REQUEST)
r 82.557515030 _0_ MAC  --- 0 AODV 52 [0 ffffffff 2 800] [energy 0.454875] ------- [2:255 -1:255 1 0] [0x2 0 1 [3 0] [2 1]] (REQUEST)
r 82.557515491 _1_ MAC  --- 0 AODV 52 [0 ffffffff 2 800] [energy 0.454875] ------- [2:255 -1:255 1 0] [0x2 0 1 [3 0] [2 1]] (REQUEST)
D 82.557539941 _4_ RTR  TTL 0 AODV 52 [0 ffffffff 2 800] [energy 0.454875] ------- [4:255 -1:255 0 0] [0x2 1 1 [3 0] [2 1]] (REQUEST)
D 82.557540030 _0_ RTR  TTL 0 AODV 52 [0 ffffffff 2 800] [energy 0.454875] ------- [0:255 -1:255 0 0] [0x2 1 1 [3 0] [2 1]] (REQUEST)
D 82.557540491 _1_ RTR  TTL 0 AODV 52 [0 ffffffff 2 800] [energy 0.454875] ------- [1:255 -1:255 0 0] [0x2 1 1 [3 0] [2 1]] (REQUEST)
s 83.000075000 _2_ MAC  --- 0 AODV 104 [0 ffffffff 2 800] [energy 0.454750] ------- [2:255 -1:255 3 0] [0x2 0 2 [3 0] [2 2]] (REQUEST)
r 83.000491195 _4_ MAC  --- 0 AODV 52 [0 ffffffff 2 800] [energy 0.454750] ------- [2:255 -1:255 3 0] [0x2 0 2 [3 0] [2 2]] (REQUEST)
r 83.000491283 _0_ MAC  --- 0 AODV 52 [0 ffffffff 2 800] [energy 0.454750] ------- [2:255 -1:255 3 0] [0x2 0 2 [3 0] [2 2]] (REQUEST)
r 83.000491744 _1_ MAC  --- 0 AODV 52 [0 ffffffff 2 800] [energy 0.454750] ------- [2:255 -1:255 3 0] [0x2 0 2 [3 0] [2 2]] (REQUEST)
s 83.002781336 _1_ MAC  --- 0 AODV 104 [0 ffffffff 1 800] [energy 0.454750] ------- [1:255 -1:255 2 0] [0x2 1 2 [3 0] [2 2]] (REQUEST)
r 83.003197926 _0_ MAC  --- 0 AODV 52 [0 ffffffff 1 800] [energy 0.454626] ------- [1:255 -1:255 2 0] [0x2 1 2 [3 0] [2 2]] (REQUEST)
r 83.003197965 _3_ MAC  --- 0 AODV 52 [0 ffffffff 1 800] [energy 0.454626] ------- [1:255 -1:255 2 0] [0x2 1 2 [3 0] [2 2]] (REQUEST)
r 83.003198081 _2_ MAC  --- 0 AODV 52 [0 ffffffff 1 800] [energy 0.454376] ------- [1:255 -1:255 2 0] [0x2 1 2 [3 0] [2 2]] (REQUEST)
s 83.003277965 _3_ MAC  --- 0 ARP 80 [0 ffffffff 3 806] [energy 0.454626] ------- [REQUEST 3/3 0/1]
r 83.003598594 _1_ MAC  --- 0 ARP 28 [0 ffffffff 3 806] [energy 0.454405] ------- [REQUEST 3/3 0/1]
s 83.003653594 _1_ MAC  --- 0 MAC 44 [28f 3 1 0] [energy 0.454405] 
r 83.003830224 _3_ MAC  --- 0 MAC 44 [28f 3 1 0] [energy 0.454381] 
s 83.003840224 _3_ MAC  --- 0 MAC 38 [1ed 1 0 0] [energy 0.454381] 
r 83.003992853 _1_ MAC  --- 0 MAC 38 [1ed 1 0 0] [energy 0.454254] 
s 83.004042853 _1_ MAC  --- 0 ARP 80 [a2 3 1 806] [energy 0.454254] ------- [REPLY 1/1 3/3]
r 83.004363482 _3_ MAC  --- 0 ARP 28 [a2 3 1 806] [energy 0.454194] ------- [REPLY 1/1 3/3]
s 83.004373482 _3_ MAC  --- 0 MAC 38 [0 1 0 0] [energy 0.454194] 
r 83.004526111 _1_ MAC  --- 0 MAC 38 [0 1 0 0] [energy 0.454016] 
s 83.004995482 _3_ MAC  --- 0 MAC 44 [2cf 1 3 0] [energy 0.454102] 
r 83.005172111 _1_ MAC  --- 0 MAC 44 [2cf 1 3 0] [energy 0.453963] 
s 83.005182111 _1_ MAC  --- 0 MAC 38 [22d 3 0 0] [energy 0.453963] 
r 83.005334740 _3_ MAC  --- 0 MAC 38 [22d 3 0 0] [energy 0.453951] 
s 83.005384740 _3_ MAC  --- 0 AODV 96 [a2 1 3 800] [energy 0.453951] ------- [3:255 2:255 30 1] [0x4 0 [3 1] 60] (REPLY)
r 83.005769369 _1_ MAC  --- 0 AODV 44 [a2 1 3 800] [energy 0.453757] ------- [3:255 2:255 30 1] [0x4 0 [3 1] 60] (REPLY)
s 83.005779369 _1_ MAC  --- 0 MAC 38 [0 3 0 0] [energy 0.453757] 
r 83.005931998 _3_ MAC  --- 0 MAC 38 [0 3 0 0] [energy 0.453675] 
s 83.006307800 _0_ MAC  --- 0 AODV 104 [0 ffffffff 0 800] [energy 0.454030] ------- [0:255 -1:255 2 0] [0x2 1 2 [3 0] [2 2]] (REQUEST)
r 83.006724083 _2_ MAC  --- 0 AODV 52 [0 ffffffff 0 800] [energy 0.453656] ------- [0:255 -1:255 2 0] [0x2 1 2 [3 0] [2 2]] (REQUEST)
r 83.006724254 _4_ MAC  --- 0 AODV 52 [0 ffffffff 0 800] [energy 0.453906] ------- [0:255 -1:255 2 0] [0x2 1 2 [3 0] [2 2]] (REQUEST)
r 83.006724389 _1_ MAC  --- 0 AODV 52 [0 ffffffff 0 800] [energy 0.453541] ------- [0:255 -1:255 2 0] [0x2 1 2 [3 0] [2 2]] (REQUEST)
s 83.006974389 _1_ MAC  --- 0 ARP 80 [0 ffffffff 1 806] [energy 0.453541] ------- [REQUEST 1/1 0/2]
r 83.007294979 _0_ MAC  --- 0 ARP 28 [0 ffffffff 1 806] [energy 0.453685] ------- [REQUEST 1/1 0/2]
r 83.007295018 _3_ MAC  --- 0 ARP 28 [0 ffffffff 1 806] [energy 0.453454] ------- [REQUEST 1/1 0/2]
r 83.007295134 _2_ MAC  --- 0 ARP 28 [0 ffffffff 1 806] [energy 0.453560] ------- [REQUEST 1/1 0/2]
s 83.007350134 _2_ MAC  --- 0 MAC 44 [28f 1 2 0] [energy 0.453560] 
r 83.007526878 _1_ MAC  --- 0 MAC 44 [28f 1 2 0] [energy 0.453296] 
s 83.007536878 _1_ MAC  --- 0 MAC 38 [1ed 2 0 0] [energy 0.453296] 
r 83.007689622 _2_ MAC  --- 0 MAC 38 [1ed 2 0 0] [energy 0.453409] 
s 83.007739622 _2_ MAC  --- 0 ARP 80 [a2 1 2 806] [energy 0.453409] ------- [REPLY 2/2 1/1]
r 83.008060367 _1_ MAC  --- 0 ARP 28 [a2 1 2 806] [energy 0.453109] ------- [REPLY 2/2 1/1]
s 83.008070367 _1_ MAC  --- 0 MAC 38 [0 2 0 0] [energy 0.453109] 
r 83.008223111 _2_ MAC  --- 0 MAC 38 [0 2 0 0] [energy 0.453171] 
s 83.008552367 _1_ MAC  --- 0 MAC 44 [2cf 2 1 0] [energy 0.453018] 
r 83.008729111 _2_ MAC  --- 0 MAC 44 [2cf 2 1 0] [energy 0.453118] 
s 83.008739111 _2_ MAC  --- 0 MAC 38 [22d 1 0 0] [energy 0.453118] 
r 83.008891855 _1_ MAC  --- 0 MAC 38 [22d 1 0 0] [energy 0.452866] 
s 83.008941855 _1_ MAC  --- 0 AODV 96 [a2 2 1 800] [energy 0.452866] ------- [3:255 2:255 29 2] [0x4 1 [3 1] 60] (REPLY)
r 83.009326600 _2_ MAC  --- 0 AODV 44 [a2 2 1 800] [energy 0.452912] ------- [3:255 2:255 29 2] [0x4 1 [3 1] 60] (REPLY)
s 83.009336600 _2_ MAC  --- 0 MAC 38 [0 1 0 0] [energy 0.452912] 
r 83.009489344 _1_ MAC  --- 0 MAC 38 [0 1 0 0] [energy 0.452590] 
s 83.009718600 _2_ MAC  --- 0 MAC 44 [a6e 1 2 0] [energy 0.452821] 
r 83.009895344 _1_ MAC  --- 0 MAC 44 [a6e 1 2 0] [energy 0.452538] 
s 83.009905344 _1_ MAC  --- 0 MAC 38 [9cd 2 0 0] [energy 0.452538] 
r 83.010058088 _2_ MAC  --- 0 MAC 38 [9cd 2 0 0] [energy 0.452670] 
s 83.010108088 _2_ MAC  --- 0 cbr 584 [a2 1 2 800] [energy 0.452670] ------- [2:0 3:0 30 1] [0] 0 2
r 83.012444833 _1_ MAC  --- 0 cbr 532 [a2 1 2 800] [energy 0.451746] ------- [2:0 3:0 30 1] [0] 1 2
s 83.012454833 _1_ MAC  --- 0 MAC 38 [0 2 0 0] [energy 0.451746] 
r 83.012607577 _2_ MAC  --- 0 MAC 38 [0 2 0 0] [energy 0.451222] 
s 83.012836833 _1_ MAC  --- 0 MAC 44 [a6e 3 1 0] [energy 0.451654] 
r 83.013013462 _3_ MAC  --- 0 MAC 44 [a6e 3 1 0] [energy 0.452058] 
s 83.013023462 _3_ MAC  --- 0 MAC 38 [9cd 1 0 0] [energy 0.452058] 
r 83.013176091 _1_ MAC  --- 0 MAC 38 [9cd 1 0 0] [energy 0.451503] 
s 83.013226091 _1_ MAC  --- 0 cbr 584 [a2 3 1 800] [energy 0.451503] ------- [2:0 3:0 29 3] [0] 1 2
r 83.015562720 _3_ MAC  --- 0 cbr 532 [a2 3 1 800] [energy 0.451266] ------- [2:0 3:0 29 3] [0] 2 2
s 83.015572720 _3_ MAC  --- 0 MAC 38 [0 1 0 0] [energy 0.451266] 
r 83.015587720 _3_ AGT  --- 0 cbr 532 [a2 3 1 800] [energy 0.451174] ------- [2:0 3:0 29 3] [0] 2 2
r 83.015725349 _1_ MAC  --- 0 MAC 38 [0 1 0 0] [energy 0.450056] 
s 83.016183919 _4_ MAC  --- 0 AODV 104 [0 ffffffff 4 800] [energy 0.451621] ------- [4:255 -1:255 2 0] [0x2 1 2 [3 0] [2 2]] (REQUEST)
r 83.016600113 _2_ MAC  --- 0 AODV 52 [0 ffffffff 4 800] [energy 0.450253] ------- [4:255 -1:255 2 0] [0x2 1 2 [3 0] [2 2]] (REQUEST)
r 83.016600373 _0_ MAC  --- 0 AODV 52 [0 ffffffff 4 800] [energy 0.451371] ------- [4:255 -1:255 2 0] [0x2 1 2 [3 0] [2 2]] (REQUEST)
s 83.557039399 _2_ AGT  --- 1 cbr 512 [0 0 0 0] [energy 0.450253] ------- [2:0 3:0 32 0] [1] 0 2
s 83.557114399 _2_ MAC  --- 0 MAC 44 [a6e 1 2 0] [energy 0.450253] 
r 83.557291143 _1_ MAC  --- 0 MAC 44 [a6e 1 2 0] [energy 0.449878] 
s 83.557301143 _1_ MAC  --- 0 MAC 38 [9cd 2 0 0] [energy 0.449878] 
r 83.557453888 _2_ MAC  --- 0 MAC 38 [9cd 2 0 0] [energy 0.450102] 
s 83.557503888 _2_ MAC  --- 1 cbr 584 [a2 1 2 800] [energy 0.450102] ------- [2:0 3:0 30 1] [1] 0 2
r 83.559840632 _1_ MAC  --- 1 cbr 532 [a2 1 2 800] [energy 0.449086] ------- [2:0 3:0 30 1] [1] 1 2
s 83.559850632 _1_ MAC  --- 0 MAC 38 [0 2 0 0] [energy 0.449086] 
r 83.560003376 _2_ MAC  --- 0 MAC 38 [0 2 0 0] [energy 0.448654] 
s 83.560212632 _1_ MAC  --- 0 MAC 44 [a6e 3 1 0] [energy 0.448995] 
r 83.560389261 _3_ MAC  --- 0 MAC 44 [a6e 3 1 0] [energy 0.450152] 
s 83.560399261 _3_ MAC  --- 0 MAC 38 [9cd 1 0 0] [energy 0.450152] 
r 83.560551890 _1_ MAC  --- 0 MAC 38 [9cd 1 0 0] [energy 0.448844] 
s 83.560601890 _1_ MAC  --- 1 cbr 584 [a2 3 1 800] [energy 0.448844] ------- [2:0 3:0 29 3] [1] 1 2
r 83.562938519 _3_ MAC  --- 1 cbr 532 [a2 3 1 800] [energy 0.449360] ------- [2:0 3:0 29 3] [1] 2 2
s 83.562948519 _3_ MAC  --- 0 MAC 38 [0 1 0 0] [energy 0.449360] 
r 83.562963519 _3_ AGT  --- 1 cbr 532 [a2 3 1 800] [energy 0.449269] ------- [2:0 3:0 29 3] [1] 2 2
r 83.563101148 _1_ MAC  --- 0 MAC 38 [0 1 0 0] [energy 0.447397] 
s 85.930584824 _2_ AGT  --- 2 cbr 512 [0 0 0 0] [energy 0.447810] ------- [2:0 3:0 32 0] [2] 0 2
s 85.930659824 _2_ MAC  --- 0 MAC 44 [a6e 1 2 0] [energy 0.447810] 
r 85.930836568 _1_ MAC  --- 0 MAC 44 [a6e 1 2 0] [energy 0.447344] 
s 85.930846568 _1_ MAC  --- 0 MAC 38 [9cd 2 0 0] [energy 0.447344] 
r 85.930999312 _2_ MAC  --- 0 MAC 38 [9cd 2 0 0] [energy 0.447658] 
s 85.931049312 _2_ MAC  --- 2 cbr 584 [a2 1 2 800] [energy 0.447658] ------- [2:0 3:0 30 1] [2] 0 2
r 85.933386057 _1_ MAC  --- 2 cbr 532 [a2 1 2 800] [energy 0.446552] ------- [2:0 3:0 30 1] [2] 1 2
s 85.933396057 _1_ MAC  --- 0 MAC 38 [0 2 0 0] [energy 0.446552] 
r 85.933548801 _2_ MAC  --- 0 MAC 38 [0 2 0 0] [energy 0.446211] 
s 85.933678057 _1_ MAC  --- 0 MAC 44 [a6e 3 1 0] [energy 0.446461] 
r 85.933854686 _3_ MAC  --- 0 MAC 44 [a6e 3 1 0] [energy 0.448371] 
s 85.933864686 _3_ MAC  --- 0 MAC 38 [9cd 1 0 0] [energy 0.448371] 
r 85.934017315 _1_ MAC  --- 0 MAC 38 [9cd 1 0 0] [energy 0.446310] 
s 85.934067315 _1_ MAC  --- 2 cbr 584 [a2 3 1 800] [energy 0.446310] ------- [2:0 3:0 29 3] [2] 1 2
r 85.936403944 _3_ MAC  --- 2 cbr 532 [a2 3 1 800] [energy 0.447579] ------- [2:0 3:0 29 3] [2] 2 2
s 85.936413944 _3_ MAC  --- 0 MAC 38 [0 1 0 0] [energy 0.447579] 
r 85.936428944 _3_ AGT  --- 2 cbr 532 [a2 3 1 800] [energy 0.447488] ------- [2:0 3:0 29 3] [2] 2 2
r 85.936566573 _1_ MAC  --- 0 MAC 38 [0 1 0 0] [energy 0.444862] 
s 87.984442379 _2_ AGT  --- 3 cbr 512 [0 0 0 0] [energy 0.445366] ------- [2:0 3:0 32 0] [3] 0 2
s 87.984517379 _2_ MAC  --- 0 MAC 44 [a6e 1 2 0] [energy 0.445366] 
r 87.984694123 _1_ MAC  --- 0 MAC 44 [a6e 1 2 0] [energy 0.444810] 
s 87.984704123 _1_ MAC  --- 0 MAC 38 [9cd 2 0 0] [energy 0.444810] 
r 87.984856867 _2_ MAC  --- 0 MAC 38 [9cd 2 0 0] [energy 0.445215] 
s 87.984906867 _2_ MAC  --- 3 cbr 584 [a2 1 2 800] [energy 0.445215] ------- [2:0 3:0 30 1] [3] 0 2
r 87.987243612 _1_ MAC  --- 3 cbr 532 [a2 1 2 800] [energy 0.444018] ------- [2:0 3:0 30 1] [3] 1 2
s 87.987253612 _1_ MAC  --- 0 MAC 38 [0 2 0 0] [energy 0.444018] 
r 87.987406356 _2_ MAC  --- 0 MAC 38 [0 2 0 0] [energy 0.443768] 
s 87.987575612 _1_ MAC  --- 0 MAC 44 [a6e 3 1 0] [energy 0.443926] 
r 87.987752241 _3_ MAC  --- 0 MAC 44 [a6e 3 1 0] [energy 0.446590] 
s 87.987762241 _3_ MAC  --- 0 MAC 38 [9cd 1 0 0] [energy 0.446590] 
r 87.987914870 _1_ MAC  --- 0 MAC 38 [9cd 1 0 0] [energy 0.443775] 
s 87.987964870 _1_ MAC  --- 3 cbr 584 [a2 3 1 800] [energy 0.443775] ------- [2:0 3:0 29 3] [3] 1 2
r 87.990301499 _3_ MAC  --- 3 cbr 532 [a2 3 1 800] [energy 0.445798] ------- [2:0 3:0 29 3] [3] 2 2
s 87.990311499 _3_ MAC  --- 0 MAC 38 [0 1 0 0] [energy 0.445798] 
r 87.990326499 _3_ AGT  --- 3 cbr 532 [a2 3 1 800] [energy 0.445707] ------- [2:0 3:0 29 3] [3] 2 2
r 87.990464128 _1_ MAC  --- 0 MAC 38 [0 1 0 0] [energy 0.442328] 
s 90.386823568 _2_ AGT  --- 4 cbr 512 [0 0 0 0] [energy 0.442923] ------- [2:0 3:0 32 0] [4] 0 2
s 90.386898568 _2_ MAC  --- 0 MAC 44 [a6e 1 2 0] [energy 0.442923] 
r 90.387075312 _1_ MAC  --- 0 MAC 44 [a6e 1 2 0] [energy 0.442275] 
s 90.387085312 _1_ MAC  --- 0 MAC 38 [9cd 2 0 0] [energy 0.442275] 
r 90.387238056 _2_ MAC  --- 0 MAC 38 [9cd 2 0 0] [energy 0.442772] 
s 90.387288056 _2_ MAC  --- 4 cbr 584 [a2 1 2 800] [energy 0.442772] ------- [2:0 3:0 30 1] [4] 0 2
r 90.389624801 _1_ MAC  --- 4 cbr 532 [a2 1 2 800] [energy 0.441483] ------- [2:0 3:0 30 1] [4] 1 2
s 90.389634801 _1_ MAC  --- 0 MAC 38 [0 2 0 0] [energy 0.441483] 
r 90.389787545 _2_ MAC  --- 0 MAC 38 [0 2 0 0] [energy 0.441325] 
s 90.390236801 _1_ MAC  --- 0 MAC 44 [a6e 3 1 0] [energy 0.441392] 
r 90.390413430 _3_ MAC  --- 0 MAC 44 [a6e 3 1 0] [energy 0.444810] 
s 90.390423430 _3_ MAC  --- 0 MAC 38 [9cd 1 0 0] [energy 0.444810] 
r 90.390576059 _1_ MAC  --- 0 MAC 38 [9cd 1 0 0] [energy 0.441241] 
s 90.390626059 _1_ MAC  --- 4 cbr 584 [a2 3 1 800] [energy 0.441241] ------- [2:0 3:0 29 3] [4] 1 2
r 90.392962688 _3_ MAC  --- 4 cbr 532 [a2 3 1 800] [energy 0.444018] ------- [2:0 3:0 29 3] [4] 2 2
s 90.392972688 _3_ MAC  --- 0 MAC 38 [0 1 0 0] [energy 0.444018] 
r 90.392987688 _3_ AGT  --- 4 cbr 532 [a2 3 1 800] [energy 0.443926] ------- [2:0 3:0 29 3] [4] 2 2
r 90.393125317 _1_ MAC  --- 0 MAC 38 [0 1 0 0] [energy 0.439794] 
N -t 91.000000 -n 0 -e 0.444613
N -t 91.000000 -n 1 -e 0.439794
N -t 91.000000 -n 2 -e 0.440480
N -t 91.000000 -n 3 -e 0.443926
N -t 91.000000 -n 4 -e 0.444613
s 91.481752595 _2_ AGT  --- 5 cbr 512 [0 0 0 0] [energy 0.440480] ------- [2:0 3:0 32 0] [5] 0 2
s 91.481827595 _2_ MAC  --- 0 MAC 44 [a6e 1 2 0] [energy 0.440480] 
r 91.482004339 _1_ MAC  --- 0 MAC 44 [a6e 1 2 0] [energy 0.439741] 
s 91.482014339 _1_ MAC  --- 0 MAC 38 [9cd 2 0 0] [energy 0.439741] 
r 91.482167084 _2_ MAC  --- 0 MAC 38 [9cd 2 0 0] [energy 0.440329] 
s 91.482217084 _2_ MAC  --- 5 cbr 584 [a2 1 2 800] [energy 0.440329] ------- [2:0 3:0 30 1] [5] 0 2
r 91.484553828 _1_ MAC  --- 5 cbr 532 [a2 1 2 800] [energy 0.438949] ------- [2:0 3:0 30 1] [5] 1 2
s 91.484563828 _1_ MAC  --- 0 MAC 38 [0 2 0 0] [energy 0.438949] 
r 91.484716572 _2_ MAC  --- 0 MAC 38 [0 2 0 0] [energy 0.438882] 
s 91.485305828 _1_ MAC  --- 0 MAC 44 [a6e 3 1 0] [energy 0.438858] 
r 91.485482457 _3_ MAC  --- 0 MAC 44 [a6e 3 1 0] [energy 0.443029] 
s 91.485492457 _3_ MAC  --- 0 MAC 38 [9cd 1 0 0] [energy 0.443029] 
r 91.485645086 _1_ MAC  --- 0 MAC 38 [9cd 1 0 0] [energy 0.438706] 
s 91.485695086 _1_ MAC  --- 5 cbr 584 [a2 3 1 800] [energy 0.438706] ------- [2:0 3:0 29 3] [5] 1 2
r 91.488031715 _3_ MAC  --- 5 cbr 532 [a2 3 1 800] [energy 0.442237] ------- [2:0 3:0 29 3] [5] 2 2
s 91.488041715 _3_ MAC  --- 0 MAC 38 [0 1 0 0] [energy 0.442237] 
r 91.488056715 _3_ AGT  --- 5 cbr 532 [a2 3 1 800] [energy 0.442146] ------- [2:0 3:0 29 3] [5] 2 2
r 91.488194344 _1_ MAC  --- 0 MAC 38 [0 1 0 0] [energy 0.437259] 
s 93.994573567 _2_ AGT  --- 6 cbr 512 [0 0 0 0] [energy 0.438037] ------- [2:0 3:0 32 0] [6] 0 2
s 93.994648567 _2_ MAC  --- 0 MAC 44 [a6e 1 2 0] [energy 0.438037] 
r 93.994825311 _1_ MAC  --- 0 MAC 44 [a6e 1 2 0] [energy 0.437206] 
s 93.994835311 _1_ MAC  --- 0 MAC 38 [9cd 2 0 0] [energy 0.437206] 
r 93.994988055 _2_ MAC  --- 0 MAC 38 [9cd 2 0 0] [energy 0.437886] 
s 93.995038055 _2_ MAC  --- 6 cbr 584 [a2 1 2 800] [energy 0.437886] ------- [2:0 3:0 30 1] [6] 0 2
r 93.997374800 _1_ MAC  --- 6 cbr 532 [a2 1 2 800] [energy 0.436414] ------- [2:0 3:0 30 1] [6] 1 2
s 93.997384800 _1_ MAC  --- 0 MAC 38 [0 2 0 0] [energy 0.436414] 
r 93.997537544 _2_ MAC  --- 0 MAC 38 [0 2 0 0] [energy 0.436438] 
s 93.997746800 _1_ MAC  --- 0 MAC 44 [a6e 3 1 0] [energy 0.436323] 
r 93.997923429 _3_ MAC  --- 0 MAC 44 [a6e 3 1 0] [energy 0.441248] 
s 93.997933429 _3_ MAC  --- 0 MAC 38 [9cd 1 0 0] [energy 0.441248] 
r 93.998086058 _1_ MAC  --- 0 MAC 38 [9cd 1 0 0] [energy 0.436172] 
s 93.998136058 _1_ MAC  --- 6 cbr 584 [a2 3 1 800] [energy 0.436172] ------- [2:0 3:0 29 3] [6] 1 2
r 94.000472687 _3_ MAC  --- 6 cbr 532 [a2 3 1 800] [energy 0.440456] ------- [2:0 3:0 29 3] [6] 2 2
s 94.000482687 _3_ MAC  --- 0 MAC 38 [0 1 0 0] [energy 0.440456] 
r 94.000497687 _3_ AGT  --- 6 cbr 532 [a2 3 1 800] [energy 0.440365] ------- [2:0 3:0 29 3] [6] 2 2
r 94.000635316 _1_ MAC  --- 0 MAC 38 [0 1 0 0] [energy 0.434725] 
s 96.959674139 _2_ AGT  --- 7 cbr 512 [0 0 0 0] [energy 0.435594] ------- [2:0 3:0 32 0] [7] 0 2
s 96.959749139 _2_ MAC  --- 0 MAC 44 [a6e 1 2 0] [energy 0.435594] 
r 96.959925883 _1_ MAC  --- 0 MAC 44 [a6e 1 2 0] [energy 0.434672] 
s 96.959935883 _1_ MAC  --- 0 MAC 38 [9cd 2 0 0] [energy 0.434672] 
r 96.960088628 _2_ MAC  --- 0 MAC 38 [9cd 2 0 0] [energy 0.435442] 
s 96.960138628 _2_ MAC  --- 7 cbr 584 [a2 1 2 800] [energy 0.435442] ------- [2:0 3:0 30 1] [7] 0 2
r 96.962475372 _1_ MAC  --- 7 cbr 532 [a2 1 2 800] [energy 0.433880] ------- [2:0 3:0 30 1] [7] 1 2
s 96.962485372 _1_ MAC  --- 0 MAC 38 [0 2 0 0] [energy 0.433880] 
r 96.962638116 _2_ MAC  --- 0 MAC 38 [0 2 0 0] [energy 0.433995] 
s 96.963007372 _1_ MAC  --- 0 MAC 44 [a6e 3 1 0] [energy 0.433789] 
r 96.963184001 _3_ MAC  --- 0 MAC 44 [a6e 3 1 0] [energy 0.439467] 
s 96.963194001 _3_ MAC  --- 0 MAC 38 [9cd 1 0 0] [energy 0.439467] 
r 96.963346630 _1_ MAC  --- 0 MAC 38 [9cd 1 0 0] [energy 0.433638] 
s 96.963396630 _1_ MAC  --- 7 cbr 584 [a2 3 1 800] [energy 0.433638] ------- [2:0 3:0 29 3] [7] 1 2
r 96.965733259 _3_ MAC  --- 7 cbr 532 [a2 3 1 800] [energy 0.438675] ------- [2:0 3:0 29 3] [7] 2 2
s 96.965743259 _3_ MAC  --- 0 MAC 38 [0 1 0 0] [energy 0.438675] 
r 96.965758259 _3_ AGT  --- 7 cbr 532 [a2 3 1 800] [energy 0.438584] ------- [2:0 3:0 29 3] [7] 2 2
r 96.965895888 _1_ MAC  --- 0 MAC 38 [0 1 0 0] [energy 0.432190] 
s 98.105045905 _2_ AGT  --- 8 cbr 512 [0 0 0 0] [energy 0.433150] ------- [2:0 3:0 32 0] [8] 0 2
s 98.105120905 _2_ MAC  --- 0 MAC 44 [a6e 1 2 0] [energy 0.433150] 
r 98.105297649 _1_ MAC  --- 0 MAC 44 [a6e 1 2 0] [energy 0.432138] 
s 98.105307649 _1_ MAC  --- 0 MAC 38 [9cd 2 0 0] [energy 0.432138] 
r 98.105460394 _2_ MAC  --- 0 MAC 38 [9cd 2 0 0] [energy 0.432999] 
s 98.105510394 _2_ MAC  --- 8 cbr 584 [a2 1 2 800] [energy 0.432999] ------- [2:0 3:0 30 1] [8] 0 2
r 98.107847138 _1_ MAC  --- 8 cbr 532 [a2 1 2 800] [energy 0.431346] ------- [2:0 3:0 30 1] [8] 1 2
s 98.107857138 _1_ MAC  --- 0 MAC 38 [0 2 0 0] [energy 0.431346] 
r 98.108009882 _2_ MAC  --- 0 MAC 38 [0 2 0 0] [energy 0.431552] 
s 98.108219138 _1_ MAC  --- 0 MAC 44 [a6e 3 1 0] [energy 0.431254] 
r 98.108395767 _3_ MAC  --- 0 MAC 44 [a6e 3 1 0] [energy 0.437686] 
s 98.108405767 _3_ MAC  --- 0 MAC 38 [9cd 1 0 0] [energy 0.437686] 
r 98.108558396 _1_ MAC  --- 0 MAC 38 [9cd 1 0 0] [energy 0.431103] 
s 98.108608396 _1_ MAC  --- 8 cbr 584 [a2 3 1 800] [energy 0.431103] ------- [2:0 3:0 29 3] [8] 1 2
r 98.110945025 _3_ MAC  --- 8 cbr 532 [a2 3 1 800] [energy 0.436894] ------- [2:0 3:0 29 3] [8] 2 2
s 98.110955025 _3_ MAC  --- 0 MAC 38 [0 1 0 0] [energy 0.436894] 
r 98.110970025 _3_ AGT  --- 8 cbr 532 [a2 3 1 800] [energy 0.436803] ------- [2:0 3:0 29 3] [8] 2 2
r 98.111107654 _1_ MAC  --- 0 MAC 38 [0 1 0 0] [energy 0.429656] 
s 99.977868716 _2_ AGT  --- 9 cbr 512 [0 0 0 0] [energy 0.430707] ------- [2:0 3:0 32 0] [9] 0 2
s 99.977943716 _2_ MAC  --- 0 MAC 44 [a6e 1 2 0] [energy 0.430707] 
r 99.978120461 _1_ MAC  --- 0 MAC 44 [a6e 1 2 0] [energy 0.429603] 
s 99.978130461 _1_ MAC  --- 0 MAC 38 [9cd 2 0 0] [energy 0.429603] 
r 99.978283205 _2_ MAC  --- 0 MAC 38 [9cd 2 0 0] [energy 0.430556] 
s 99.978333205 _2_ MAC  --- 9 cbr 584 [a2 1 2 800] [energy 0.430556] ------- [2:0 3:0 30 1] [9] 0 2
r 99.980669949 _1_ MAC  --- 9 cbr 532 [a2 1 2 800] [energy 0.428811] ------- [2:0 3:0 30 1] [9] 1 2
s 99.980679949 _1_ MAC  --- 0 MAC 38 [0 2 0 0] [energy 0.428811] 
r 99.980832694 _2_ MAC  --- 0 MAC 38 [0 2 0 0] [energy 0.429109] 
s 99.981001949 _1_ MAC  --- 0 MAC 44 [a6e 3 1 0] [energy 0.428720] 
r 99.981178578 _3_ MAC  --- 0 MAC 44 [a6e 3 1 0] [energy 0.435906] 
s 99.981188578 _3_ MAC  --- 0 MAC 38 [9cd 1 0 0] [energy 0.435906] 
r 99.981341207 _1_ MAC  --- 0 MAC 38 [9cd 1 0 0] [energy 0.428569] 
s 99.981391207 _1_ MAC  --- 9 cbr 584 [a2 3 1 800] [energy 0.428569] ------- [2:0 3:0 29 3] [9] 1 2
r 99.983727837 _3_ MAC  --- 9 cbr 532 [a2 3 1 800] [energy 0.435114] ------- [2:0 3:0 29 3] [9] 2 2
s 99.983737837 _3_ MAC  --- 0 MAC 38 [0 1 0 0] [energy 0.435114] 
r 99.983752837 _3_ AGT  --- 9 cbr 532 [a2 3 1 800] [energy 0.435022] ------- [2:0 3:0 29 3] [9] 2 2
r 99.983890466 _1_ MAC  --- 0 MAC 38 [0 1 0 0] [energy 0.427122] 
N -t 101.000000 -n 0 -e 0.436165
N -t 101.000000 -n 1 -e 0.427122
N -t 101.000000 -n 2 -e 0.428264
N -t 101.000000 -n 3 -e 0.435022
N -t 101.000000 -n 4 -e 0.436165
s 101.527682397 _2_ AGT  --- 10 cbr 512 [0 0 0 0] [energy 0.428264] ------- [2:0 3:0 32 0] [10] 0 2
s 101.527757397 _2_ MAC  --- 0 MAC 44 [a6e 1 2 0] [energy 0.428264] 
r 101.527934141 _1_ MAC  --- 0 MAC 44 [a6e 1 2 0] [energy 0.427069] 
s 101.527944141 _1_ MAC  --- 0 MAC 38 [9cd 2 0 0] [energy 0.427069] 
r 101.528096885 _2_ MAC  --- 0 MAC 38 [9cd 2 0 0] [energy 0.428113] 
s 101.528146885 _2_ MAC  --- 10 cbr 584 [a2 1 2 800] [energy 0.428113] ------- [2:0 3:0 30 1] [10] 0 2
r 101.530483630 _1_ MAC  --- 10 cbr 532 [a2 1 2 800] [energy 0.426277] ------- [2:0 3:0 30 1] [10] 1 2
s 101.530493630 _1_ MAC  --- 0 MAC 38 [0 2 0 0] [energy 0.426277] 
r 101.530646374 _2_ MAC  --- 0 MAC 38 [0 2 0 0] [energy 0.426666] 
s 101.530935630 _1_ MAC  --- 0 MAC 44 [a6e 3 1 0] [energy 0.426186] 
r 101.531112259 _3_ MAC  --- 0 MAC 44 [a6e 3 1 0] [energy 0.434125] 
s 101.531122259 _3_ MAC  --- 0 MAC 38 [9cd 1 0 0] [energy 0.434125] 
r 101.531274888 _1_ MAC  --- 0 MAC 38 [9cd 1 0 0] [energy 0.426034] 
s 101.531324888 _1_ MAC  --- 10 cbr 584 [a2 3 1 800] [energy 0.426034] ------- [2:0 3:0 29 3] [10] 1 2
r 101.533661517 _3_ MAC  --- 10 cbr 532 [a2 3 1 800] [energy 0.433333] ------- [2:0 3:0 29 3] [10] 2 2
s 101.533671517 _3_ MAC  --- 0 MAC 38 [0 1 0 0] [energy 0.433333] 
r 101.533686517 _3_ AGT  --- 10 cbr 532 [a2 3 1 800] [energy 0.433242] ------- [2:0 3:0 29 3] [10] 2 2
r 101.533824146 _1_ MAC  --- 0 MAC 38 [0 1 0 0] [energy 0.424587] 
s 104.322994970 _2_ AGT  --- 11 cbr 512 [0 0 0 0] [energy 0.425821] ------- [2:0 3:0 32 0] [11] 0 2
s 104.323069970 _2_ MAC  --- 0 MAC 44 [a6e 1 2 0] [energy 0.425821] 
r 104.323246714 _1_ MAC  --- 0 MAC 44 [a6e 1 2 0] [energy 0.424534] 
s 104.323256714 _1_ MAC  --- 0 MAC 38 [9cd 2 0 0] [energy 0.424534] 
r 104.323409458 _2_ MAC  --- 0 MAC 38 [9cd 2 0 0] [energy 0.425670] 
s 104.323459458 _2_ MAC  --- 11 cbr 584 [a2 1 2 800] [energy 0.425670] ------- [2:0 3:0 30 1] [11] 0 2
r 104.325796203 _1_ MAC  --- 11 cbr 532 [a2 1 2 800] [energy 0.423742] ------- [2:0 3:0 30 1] [11] 1 2
s 104.325806203 _1_ MAC  --- 0 MAC 38 [0 2 0 0] [energy 0.423742] 
r 104.325958947 _2_ MAC  --- 0 MAC 38 [0 2 0 0] [energy 0.424222] 
s 104.326048203 _1_ MAC  --- 0 MAC 44 [a6e 3 1 0] [energy 0.423651] 
r 104.326224832 _3_ MAC  --- 0 MAC 44 [a6e 3 1 0] [energy 0.432344] 
s 104.326234832 _3_ MAC  --- 0 MAC 38 [9cd 1 0 0] [energy 0.432344] 
r 104.326387461 _1_ MAC  --- 0 MAC 38 [9cd 1 0 0] [energy 0.423500] 
s 104.326437461 _1_ MAC  --- 11 cbr 584 [a2 3 1 800] [energy 0.423500] ------- [2:0 3:0 29 3] [11] 1 2
r 104.328774090 _3_ MAC  --- 11 cbr 532 [a2 3 1 800] [energy 0.431552] ------- [2:0 3:0 29 3] [11] 2 2
s 104.328784090 _3_ MAC  --- 0 MAC 38 [0 1 0 0] [energy 0.431552] 
r 104.328799090 _3_ AGT  --- 11 cbr 532 [a2 3 1 800] [energy 0.431461] ------- [2:0 3:0 29 3] [11] 2 2
r 104.328936719 _1_ MAC  --- 0 MAC 38 [0 1 0 0] [energy 0.422053] 
s 106.332040759 _2_ AGT  --- 12 cbr 512 [0 0 0 0] [energy 0.423378] ------- [2:0 3:0 32 0] [12] 0 2
s 106.332115759 _2_ MAC  --- 0 MAC 44 [a6e 1 2 0] [energy 0.423378] 
r 106.332292504 _1_ MAC  --- 0 MAC 44 [a6e 1 2 0] [energy 0.422000] 
s 106.332302504 _1_ MAC  --- 0 MAC 38 [9cd 2 0 0] [energy 0.422000] 
r 106.332455248 _2_ MAC  --- 0 MAC 38 [9cd 2 0 0] [energy 0.423226] 
s 106.332505248 _2_ MAC  --- 12 cbr 584 [a2 1 2 800] [energy 0.423226] ------- [2:0 3:0 30 1] [12] 0 2
r 106.334841992 _1_ MAC  --- 12 cbr 532 [a2 1 2 800] [energy 0.421208] ------- [2:0 3:0 30 1] [12] 1 2
s 106.334851992 _1_ MAC  --- 0 MAC 38 [0 2 0 0] [energy 0.421208] 
r 106.335004737 _2_ MAC  --- 0 MAC 38 [0 2 0 0] [energy 0.421779] 
s 106.335493992 _1_ MAC  --- 0 MAC 44 [a6e 3 1 0] [energy 0.421117] 
r 106.335670621 _3_ MAC  --- 0 MAC 44 [a6e 3 1 0] [energy 0.430563] 
s 106.335680621 _3_ MAC  --- 0 MAC 38 [9cd 1 0 0] [energy 0.430563] 
r 106.335833250 _1_ MAC  --- 0 MAC 38 [9cd 1 0 0] [energy 0.420966] 
s 106.335883250 _1_ MAC  --- 12 cbr 584 [a2 3 1 800] [energy 0.420966] ------- [2:0 3:0 29 3] [12] 1 2
r 106.338219880 _3_ MAC  --- 12 cbr 532 [a2 3 1 800] [energy 0.429771] ------- [2:0 3:0 29 3] [12] 2 2
s 106.338229880 _3_ MAC  --- 0 MAC 38 [0 1 0 0] [energy 0.429771] 
r 106.338244880 _3_ AGT  --- 12 cbr 532 [a2 3 1 800] [energy 0.429680] ------- [2:0 3:0 29 3] [12] 2 2
r 106.338382509 _1_ MAC  --- 0 MAC 38 [0 1 0 0] [energy 0.419518] 
s 108.319994129 _2_ AGT  --- 13 cbr 512 [0 0 0 0] [energy 0.420934] ------- [2:0 3:0 32 0] [13] 0 2
s 108.320069129 _2_ MAC  --- 0 MAC 44 [a6e 1 2 0] [energy 0.420934] 
r 108.320245874 _1_ MAC  --- 0 MAC 44 [a6e 1 2 0] [energy 0.419466] 
s 108.320255874 _1_ MAC  --- 0 MAC 38 [9cd 2 0 0] [energy 0.419466] 
r 108.320408618 _2_ MAC  --- 0 MAC 38 [9cd 2 0 0] [energy 0.420783] 
s 108.320458618 _2_ MAC  --- 13 cbr 584 [a2 1 2 800] [energy 0.420783] ------- [2:0 3:0 30 1] [13] 0 2
r 108.322795362 _1_ MAC  --- 13 cbr 532 [a2 1 2 800] [energy 0.418674] ------- [2:0 3:0 30 1] [13] 1 2
s 108.322805362 _1_ MAC  --- 0 MAC 38 [0 2 0 0] [energy 0.418674] 
r 108.322958106 _2_ MAC  --- 0 MAC 38 [0 2 0 0] [energy 0.419336] 
s 108.323047362 _1_ MAC  --- 0 MAC 44 [a6e 3 1 0] [energy 0.418582] 
r 108.323223991 _3_ MAC  --- 0 MAC 44 [a6e 3 1 0] [energy 0.428782] 
s 108.323233991 _3_ MAC  --- 0 MAC 38 [9cd 1 0 0] [energy 0.428782] 
r 108.323386620 _1_ MAC  --- 0 MAC 38 [9cd 1 0 0] [energy 0.418431] 
s 108.323436620 _1_ MAC  --- 13 cbr 584 [a2 3 1 800] [energy 0.418431] ------- [2:0 3:0 29 3] [13] 1 2
r 108.325773249 _3_ MAC  --- 13 cbr 532 [a2 3 1 800] [energy 0.427990] ------- [2:0 3:0 29 3] [13] 2 2
s 108.325783249 _3_ MAC  --- 0 MAC 38 [0 1 0 0] [energy 0.427990] 
r 108.325798249 _3_ AGT  --- 13 cbr 532 [a2 3 1 800] [energy 0.427899] ------- [2:0 3:0 29 3] [13] 2 2
r 108.325935879 _1_ MAC  --- 0 MAC 38 [0 1 0 0] [energy 0.416984] 
s 109.467492280 _2_ AGT  --- 14 cbr 512 [0 0 0 0] [energy 0.418491] ------- [2:0 3:0 32 0] [14] 0 2
s 109.467567280 _2_ MAC  --- 0 MAC 44 [a6e 1 2 0] [energy 0.418491] 
r 109.467744024 _1_ MAC  --- 0 MAC 44 [a6e 1 2 0] [energy 0.416931] 
s 109.467754024 _1_ MAC  --- 0 MAC 38 [9cd 2 0 0] [energy 0.416931] 
r 109.467906768 _2_ MAC  --- 0 MAC 38 [9cd 2 0 0] [energy 0.418340] 
s 109.467956768 _2_ MAC  --- 14 cbr 584 [a2 1 2 800] [energy 0.418340] ------- [2:0 3:0 30 1] [14] 0 2
r 109.470293513 _1_ MAC  --- 14 cbr 532 [a2 1 2 800] [energy 0.416139] ------- [2:0 3:0 30 1] [14] 1 2
s 109.470303513 _1_ MAC  --- 0 MAC 38 [0 2 0 0] [energy 0.416139] 
r 109.470456257 _2_ MAC  --- 0 MAC 38 [0 2 0 0] [energy 0.416893] 
s 109.470525513 _1_ MAC  --- 0 MAC 44 [a6e 3 1 0] [energy 0.416048] 
r 109.470702142 _3_ MAC  --- 0 MAC 44 [a6e 3 1 0] [energy 0.427002] 
s 109.470712142 _3_ MAC  --- 0 MAC 38 [9cd 1 0 0] [energy 0.427002] 
r 109.470864771 _1_ MAC  --- 0 MAC 38 [9cd 1 0 0] [energy 0.415897] 
s 109.470914771 _1_ MAC  --- 14 cbr 584 [a2 3 1 800] [energy 0.415897] ------- [2:0 3:0 29 3] [14] 1 2
r 109.473251400 _3_ MAC  --- 14 cbr 532 [a2 3 1 800] [energy 0.426210] ------- [2:0 3:0 29 3] [14] 2 2
s 109.473261400 _3_ MAC  --- 0 MAC 38 [0 1 0 0] [energy 0.426210] 
r 109.473276400 _3_ AGT  --- 14 cbr 532 [a2 3 1 800] [energy 0.426118] ------- [2:0 3:0 29 3] [14] 2 2
r 109.473414029 _1_ MAC  --- 0 MAC 38 [0 1 0 0] [energy 0.414450] 
N -t 111.000000 -n 0 -e 0.427717
N -t 111.000000 -n 1 -e 0.414450
N -t 111.000000 -n 2 -e 0.416048
N -t 111.000000 -n 3 -e 0.426118
N -t 111.000000 -n 4 -e 0.427717
s 112.295127163 _2_ AGT  --- 15 cbr 512 [0 0 0 0] [energy 0.416048] ------- [2:0 3:0 32 0] [15] 0 2
s 112.295202163 _2_ MAC  --- 0 MAC 44 [a6e 1 2 0] [energy 0.416048] 
r 112.295378908 _1_ MAC  --- 0 MAC 44 [a6e 1 2 0] [energy 0.414397] 
s 112.295388908 _1_ MAC  --- 0 MAC 38 [9cd 2 0 0] [energy 0.414397] 
r 112.295541652 _2_ MAC  --- 0 MAC 38 [9cd 2 0 0] [energy 0.415897] 
s 112.295591652 _2_ MAC  --- 15 cbr 584 [a2 1 2 800] [energy 0.415897] ------- [2:0 3:0 30 1] [15] 0 2
r 112.297928396 _1_ MAC  --- 15 cbr 532 [a2 1 2 800] [energy 0.413605] ------- [2:0 3:0 30 1] [15] 1 2
s 112.297938396 _1_ MAC  --- 0 MAC 38 [0 2 0 0] [energy 0.413605] 
r 112.298091141 _2_ MAC  --- 0 MAC 38 [0 2 0 0] [energy 0.414450] 
s 112.298560396 _1_ MAC  --- 0 MAC 44 [a6e 3 1 0] [energy 0.413514] 