+ 0.212501 4 2 ack 40 ------- 0 3.0 0.0 0 2
- 0.212501 4 2 ack 40 ------- 0 3.0 0.0 0 2
r 0.212542 4 2 ack 40 ------- 0 3.0 0.0 0 2
+ 0.412401 4 2 ack 40 ------- 1 3.1 1.0 0 4
- 0.412401 4 2 ack 40 ------- 1 3.1 1.0 0 4
r 0.412442 4 2 ack 40 ------- 1 3.1 1.0 0 4
+ 0.425183 4 2 ack 40 ------- 0 3.0 0.0 1 5
- 0.425183 4 2 ack 40 ------- 0 3.0 0.0 1 5
r 0.425224 4 2 ack 40 ------- 0 3.0 0.0 1 5
+ 0.637865 4 2 ack 40 ------- 0 3.0 0.0 2 8
- 0.637865 4 2 ack 40 ------- 0 3.0 0.0 2 8
r 0.637906 4 2 ack 40 ------- 0 3.0 0.0 2 8
+ 0.647865 4 2 ack 40 ------- 0 3.0 0.0 3 9
- 0.647865 4 2 ack 40 ------- 0 3.0 0.0 3 9
r 0.647906 4 2 ack 40 ------- 0 3.0 0.0 3 9
+ 0.850547 4 2 ack 40 ------- 0 3.0 0.0 4 13
- 0.850547 4 2 ack 40 ------- 0 3.0 0.0 4 13
r 0.850588 4 2 ack 40 ------- 0 3.0 0.0 4 13
+ 0.860547 4 2 ack 40 ------- 0 3.0 0.0 5 14
- 0.860547 4 2 ack 40 ------- 0 3.0 0.0 5 14
r 0.860588 4 2 ack 40 ------- 0 3.0 0.0 5 14
+ 1.024883 4 2 ack 40 ------- 1 3.1 1.0 1 19
- 1.024883 4 2 ack 40 ------- 1 3.1 1.0 1 19
r 1.024924 4 2 ack 40 ------- 1 3.1 1.0 1 19
+ 1.063229 4 2 ack 40 ------- 0 3.0 0.0 6 20
- 1.063229 4 2 ack 40 ------- 0 3.0 0.0 6 20
r 1.06327 4 2 ack 40 ------- 0 3.0 0.0 6 20
+ 1.073229 4 2 ack 40 ------- 0 3.0 0.0 7 21
- 1.073229 4 2 ack 40 ------- 0 3.0 0.0 7 21
r 1.07327 4 2 ack 40 ------- 0 3.0 0.0 7 21
+ 1.083229 4 2 ack 40 ------- 0 3.0 0.0 8 22
- 1.083229 4 2 ack 40 ------- 0 3.0 0.0 8 22
r 1.08327 4 2 ack 40 ------- 0 3.0 0.0 8 22
+ 1.093229 4 2 ack 40 ------- 0 3.0 0.0 9 23
- 1.093229 4 2 ack 40 ------- 0 3.0 0.0 9 23
r 1.09327 4 2 ack 40 ------- 0 3.0 0.0 9 23
+ 1.275911 4 2 ack 40 ------- 0 3.0 0.0 10 28
- 1.275911 4 2 ack 40 ------- 0 3.0 0.0 10 28
r 1.275952 4 2 ack 40 ------- 0 3.0 0.0 10 28
+ 1.285911 4 2 ack 40 ------- 0 3.0 0.0 11 29
- 1.285911 4 2 ack 40 ------- 0 3.0 0.0 11 29
r 1.285952 4 2 ack 40 ------- 0 3.0 0.0 11 29
+ 1.295911 4 2 ack 40 ------- 0 3.0 0.0 12 30
- 1.295911 4 2 ack 40 ------- 0 3.0 0.0 12 30
r 1.295952 4 2 ack 40 ------- 0 3.0 0.0 12 30
+ 1.305911 4 2 ack 40 ------- 0 3.0 0.0 13 31
- 1.305911 4 2 ack 40 ------- 0 3.0 0.0 13 31
r 1.305952 4 2 ack 40 ------- 0 3.0 0.0 13 31
+ 1.488593 4 2 ack 40 ------- 0 3.0 0.0 14 42
- 1.488593 4 2 ack 40 ------- 0 3.0 0.0 14 42
r 1.488634 4 2 ack 40 ------- 0 3.0 0.0 14 42
+ 1.498593 4 2 ack 40 ------- 0 3.0 0.0 15 43
- 1.498593 4 2 ack 40 ------- 0 3.0 0.0 15 43
r 1.498634 4 2 ack 40 ------- 0 3.0 0.0 15 43
+ 1.508593 4 2 ack 40 ------- 0 3.0 0.0 16 44
- 1.508593 4 2 ack 40 ------- 0 3.0 0.0 16 44
r 1.508634 4 2 ack 40 ------- 0 3.0 0.0 16 44
+ 1.518593 4 2 ack 40 ------- 0 3.0 0.0 17 45
- 1.518593 4 2 ack 40 ------- 0 3.0 0.0 17 45
r 1.518634 4 2 ack 40 ------- 0 3.0 0.0 17 45
+ 1.528593 4 2 ack 40 ------- 0 3.0 0.0 18 46
- 1.528593 4 2 ack 40 ------- 0 3.0 0.0 18 46
r 1.528634 4 2 ack 40 ------- 0 3.0 0.0 18 46
+ 1.538593 4 2 ack 40 ------- 0 3.0 0.0 19 47
- 1.538593 4 2 ack 40 ------- 0 3.0 0.0 19 47
r 1.538634 4 2 ack 40 ------- 0 3.0 0.0 19 47
+ 1.548593 4 2 ack 40 ------- 0 3.0 0.0 20 48
- 1.548593 4 2 ack 40 ------- 0 3.0 0.0 20 48
r 1.548634 4 2 ack 40 ------- 0 3.0 0.0 20 48
+ 1.558593 4 2 ack 40 ------- 0 3.0 0.0 21 49
- 1.558593 4 2 ack 40 ------- 0 3.0 0.0 21 49
r 1.558634 4 2 ack 40 ------- 0 3.0 0.0 21 49
+ 1.637365 4 2 ack 40 ------- 1 3.1 1.0 2 55
- 1.637365 4 2 ack 40 ------- 1 3.1 1.0 2 55
r 1.637406 4 2 ack 40 ------- 1 3.1 1.0 2 55
+ 1.647365 4 2 ack 40 ------- 1 3.1 1.0 3 57
- 1.647365 4 2 ack 40 ------- 1 3.1 1.0 3 57
r 1.647406 4 2 ack 40 ------- 1 3.1 1.0 3 57
+ 1.701275 4 2 ack 40 ------- 0 3.0 0.0 22 60
- 1.701275 4 2 ack 40 ------- 0 3.0 0.0 22 60
r 1.701316 4 2 ack 40 ------- 0 3.0 0.0 22 60
+ 1.711275 4 2 ack 40 ------- 0 3.0 0.0 23 61
- 1.711275 4 2 ack 40 ------- 0 3.0 0.0 23 61
r 1.711316 4 2 ack 40 ------- 0 3.0 0.0 23 61
+ 1.721275 4 2 ack 40 ------- 0 3.0 0.0 24 62
- 1.721275 4 2 ack 40 ------- 0 3.0 0.0 24 62
r 1.721316 4 2 ack 40 ------- 0 3.0 0.0 24 62
+ 1.731275 4 2 ack 40 ------- 0 3.0 0.0 25 63
- 1.731275 4 2 ack 40 ------- 0 3.0 0.0 25 63
r 1.731316 4 2 ack 40 ------- 0 3.0 0.0 25 63
+ 1.741275 4 2 ack 40 ------- 0 3.0 0.0 26 64
- 1.741275 4 2 ack 40 ------- 0 3.0 0.0 26 64
r 1.741316 4 2 ack 40 ------- 0 3.0 0.0 26 64
+ 1.751275 4 2 ack 40 ------- 0 3.0 0.0 27 65
- 1.751275 4 2 ack 40 ------- 0 3.0 0.0 27 65
r 1.751316 4 2 ack 40 ------- 0 3.0 0.0 27 65
+ 1.761275 4 2 ack 40 ------- 0 3.0 0.0 28 66
- 1.761275 4 2 ack 40 ------- 0 3.0 0.0 28 66
r 1.761316 4 2 ack 40 ------- 0 3.0 0.0 28 66
+ 1.771275 4 2 ack 40 ------- 0 3.0 0.0 29 67
- 1.771275 4 2 ack 40 ------- 0 3.0 0.0 29 67
r 1.771316 4 2 ack 40 ------- 0 3.0 0.0 29 67
+ 1.913957 4 2 ack 40 ------- 0 3.0 0.0 30 84
- 1.913957 4 2 ack 40 ------- 0 3.0 0.0 30 84
r 1.913998 4 2 ack 40 ------- 0 3.0 0.0 30 84
+ 1.923957 4 2 ack 40 ------- 0 3.0 0.0 31 85
- 1.923957 4 2 ack 40 ------- 0 3.0 0.0 31 85
r 1.923998 4 2 ack 40 ------- 0 3.0 0.0 31 85
+ 1.933957 4 2 ack 40 ------- 0 3.0 0.0 32 86
- 1.933957 4 2 ack 40 ------- 0 3.0 0.0 32 86
r 1.933998 4 2 ack 40 ------- 0 3.0 0.0 32 86
+ 1.943957 4 2 ack 40 ------- 0 3.0 0.0 33 88
- 1.943957 4 2 ack 40 ------- 0 3.0 0.0 33 88
r 1.943998 4 2 ack 40 ------- 0 3.0 0.0 33 88
+ 1.953957 4 2 ack 40 ------- 0 3.0 0.0 34 90
- 1.953957 4 2 ack 40 ------- 0 3.0 0.0 34 90
r 1.953998 4 2 ack 40 ------- 0 3.0 0.0 34 90
+ 1.963957 4 2 ack 40 ------- 0 3.0 0.0 35 91
- 1.963957 4 2 ack 40 ------- 0 3.0 0.0 35 91
r 1.963998 4 2 ack 40 ------- 0 3.0 0.0 35 91
+ 1.973957 4 2 ack 40 ------- 0 3.0 0.0 36 92
- 1.973957 4 2 ack 40 ------- 0 3.0 0.0 36 92
r 1.973998 4 2 ack 40 ------- 0 3.0 0.0 36 92
+ 1.983957 4 2 ack 40 ------- 0 3.0 0.0 37 93
- 1.983957 4 2 ack 40 ------- 0 3.0 0.0 37 93
r 1.983998 4 2 ack 40 ------- 0 3.0 0.0 37 93
+ 1.993957 4 2 ack 40 ------- 0 3.0 0.0 38 94
- 1.993957 4 2 ack 40 ------- 0 3.0 0.0 38 94
r 1.993998 4 2 ack 40 ------- 0 3.0 0.0 38 94
+ 2.003957 4 2 ack 40 ------- 0 3.0 0.0 39 95
- 2.003957 4 2 ack 40 ------- 0 3.0 0.0 39 95
r 2.003998 4 2 ack 40 ------- 0 3.0 0.0 39 95
+ 2.013957 4 2 ack 40 ------- 0 3.0 0.0 40 96
- 2.013957 4 2 ack 40 ------- 0 3.0 0.0 40 96
r 2.013998 4 2 ack 40 ------- 0 3.0 0.0 40 96
+ 2.023957 4 2 ack 40 ------- 0 3.0 0.0 41 98
- 2.023957 4 2 ack 40 ------- 0 3.0 0.0 41 98
r 2.023998 4 2 ack 40 ------- 0 3.0 0.0 41 98
+ 2.033957 4 2 ack 40 ------- 0 3.0 0.0 42 100
- 2.033957 4 2 ack 40 ------- 0 3.0 0.0 42 100
r 2.033998 4 2 ack 40 ------- 0 3.0 0.0 42 100
+ 2.043957 4 2 ack 40 ------- 0 3.0 0.0 43 102
- 2.043957 4 2 ack 40 ------- 0 3.0 0.0 43 102
r 2.043998 4 2 ack 40 ------- 0 3.0 0.0 43 102
+ 2.053957 4 2 ack 40 ------- 0 3.0 0.0 44 104
- 2.053957 4 2 ack 40 ------- 0 3.0 0.0 44 104
r 2.053998 4 2 ack 40 ------- 0 3.0 0.0 44 104
+ 2.063957 4 2 ack 40 ------- 0 3.0 0.0 45 106
- 2.063957 4 2 ack 40 ------- 0 3.0 0.0 45 106
r 2.063998 4 2 ack 40 ------- 0 3.0 0.0 45 106
+ 2.126639 4 2 ack 40 ------- 0 3.0 0.0 46 114
- 2.126639 4 2 ack 40 ------- 0 3.0 0.0 46 114
r 2.12668 4 2 ack 40 ------- 0 3.0 0.0 46 114
+ 2.136639 4 2 ack 40 ------- 0 3.0 0.0 47 116
- 2.136639 4 2 ack 40 ------- 0 3.0 0.0 47 116
r 2.13668 4 2 ack 40 ------- 0 3.0 0.0 47 116
+ 2.146639 4 2 ack 40 ------- 0 3.0 0.0 48 118
- 2.146639 4 2 ack 40 ------- 0 3.0 0.0 48 118
r 2.14668 4 2 ack 40 ------- 0 3.0 0.0 48 118
+ 2.156639 4 2 ack 40 ------- 0 3.0 0.0 49 120
- 2.156639 4 2 ack 40 ------- 0 3.0 0.0 49 120
r 2.15668 4 2 ack 40 ------- 0 3.0 0.0 49 120
+ 2.166639 4 2 ack 40 ------- 0 3.0 0.0 50 122
- 2.166639 4 2 ack 40 ------- 0 3.0 0.0 50 122
r 2.16668 4 2 ack 40 ------- 0 3.0 0.0 50 122
+ 2.176639 4 2 ack 40 ------- 0 3.0 0.0 51 123
- 2.176639 4 2 ack 40 ------- 0 3.0 0.0 51 123
r 2.17668 4 2 ack 40 ------- 0 3.0 0.0 51 123
+ 2.186639 4 2 ack 40 ------- 0 3.0 0.0 52 124
- 2.186639 4 2 ack 40 ------- 0 3.0 0.0 52 124
r 2.18668 4 2 ack 40 ------- 0 3.0 0.0 52 124
+ 2.196639 4 2 ack 40 ------- 0 3.0 0.0 53 125
- 2.196639 4 2 ack 40 ------- 0 3.0 0.0 53 125
r 2.19668 4 2 ack 40 ------- 0 3.0 0.0 53 125
+ 2.206639 4 2 ack 40 ------- 0 3.0 0.0 54 126
- 2.206639 4 2 ack 40 ------- 0 3.0 0.0 54 126
r 2.20668 4 2 ack 40 ------- 0 3.0 0.0 54 126
+ 2.216639 4 2 ack 40 ------- 0 3.0 0.0 55 127
- 2.216639 4 2 ack 40 ------- 0 3.0 0.0 55 127
r 2.21668 4 2 ack 40 ------- 0 3.0 0.0 55 127
+ 2.226639 4 2 ack 40 ------- 0 3.0 0.0 56 128
- 2.226639 4 2 ack 40 ------- 0 3.0 0.0 56 128
r 2.22668 4 2 ack 40 ------- 0 3.0 0.0 56 128
+ 2.236639 4 2 ack 40 ------- 0 3.0 0.0 57 129
- 2.236639 4 2 ack 40 ------- 0 3.0 0.0 57 129
r 2.23668 4 2 ack 40 ------- 0 3.0 0.0 57 129
+ 2.246639 4 2 ack 40 ------- 0 3.0 0.0 58 130
- 2.246639 4 2 ack 40 ------- 0 3.0 0.0 58 130
r 2.24668 4 2 ack 40 ------- 0 3.0 0.0 58 130
+ 2.256639 4 2 ack 40 ------- 1 3.1 1.0 4 132
- 2.256639 4 2 ack 40 ------- 1 3.1 1.0 4 132
r 2.25668 4 2 ack 40 ------- 1 3.1 1.0 4 132
+ 2.266639 4 2 ack 40 ------- 0 3.0 0.0 59 134
- 2.266639 4 2 ack 40 ------- 0 3.0 0.0 59 134
r 2.26668 4 2 ack 40 ------- 0 3.0 0.0 59 134
+ 2.276639 4 2 ack 40 ------- 1 3.1 1.0 5 136
- 2.276639 4 2 ack 40 ------- 1 3.1 1.0 5 136
r 2.27668 4 2 ack 40 ------- 1 3.1 1.0 5 136
+ 2.286639 4 2 ack 40 ------- 0 3.0 0.0 60 138
- 2.286639 4 2 ack 40 ------- 0 3.0 0.0 60 138
r 2.28668 4 2 ack 40 ------- 0 3.0 0.0 60 138
+ 2.296639 4 2 ack 40 ------- 0 3.0 0.0 61 140
- 2.296639 4 2 ack 40 ------- 0 3.0 0.0 61 140
r 2.29668 4 2 ack 40 ------- 0 3.0 0.0 61 140
+ 2.359321 4 2 ack 40 ------- 0 3.0 0.0 62 147
- 2.359321 4 2 ack 40 ------- 0 3.0 0.0 62 147
r 2.359362 4 2 ack 40 ------- 0 3.0 0.0 62 147
+ 2.369321 4 2 ack 40 ------- 0 3.0 0.0 63 149
- 2.369321 4 2 ack 40 ------- 0 3.0 0.0 63 149
r 2.369362 4 2 ack 40 ------- 0 3.0 0.0 63 149
+ 2.379321 4 2 ack 40 ------- 0 3.0 0.0 64 150
- 2.379321 4 2 ack 40 ------- 0 3.0 0.0 64 150
r 2.379362 4 2 ack 40 ------- 0 3.0 0.0 64 150
+ 2.389321 4 2 ack 40 ------- 0 3.0 0.0 65 152
- 2.389321 4 2 ack 40 ------- 0 3.0 0.0 65 152
r 2.389362 4 2 ack 40 ------- 0 3.0 0.0 65 152
+ 2.399321 4 2 ack 40 ------- 0 3.0 0.0 66 154
- 2.399321 4 2 ack 40 ------- 0 3.0 0.0 66 154
r 2.399362 4 2 ack 40 ------- 0 3.0 0.0 66 154
+ 2.409321 4 2 ack 40 ------- 0 3.0 0.0 67 155
- 2.409321 4 2 ack 40 ------- 0 3.0 0.0 67 155
r 2.409362 4 2 ack 40 ------- 0 3.0 0.0 67 155
+ 2.419321 4 2 ack 40 ------- 0 3.0 0.0 68 156
- 2.419321 4 2 ack 40 ------- 0 3.0 0.0 68 156
r 2.419362 4 2 ack 40 ------- 0 3.0 0.0 68 156
+ 2.429321 4 2 ack 40 ------- 0 3.0 0.0 69 157
- 2.429321 4 2 ack 40 ------- 0 3.0 0.0 69 157
r 2.429362 4 2 ack 40 ------- 0 3.0 0.0 69 157
+ 2.439321 4 2 ack 40 ------- 0 3.0 0.0 70 158
- 2.439321 4 2 ack 40 ------- 0 3.0 0.0 70 158
r 2.439362 4 2 ack 40 ------- 0 3.0 0.0 70 158
+ 2.449321 4 2 ack 40 ------- 0 3.0 0.0 71 159
- 2.449321 4 2 ack 40 ------- 0 3.0 0.0 71 159
r 2.449362 4 2 ack 40 ------- 0 3.0 0.0 71 159
+ 2.459321 4 2 ack 40 ------- 0 3.0 0.0 72 160
- 2.459321 4 2 ack 40 ------- 0 3.0 0.0 72 160
r 2.459362 4 2 ack 40 ------- 0 3.0 0.0 72 160
+ 2.479321 4 2 ack 40 ------- 0 3.0 0.0 73 163
- 2.479321 4 2 ack 40 ------- 0 3.0 0.0 73 163
r 2.479362 4 2 ack 40 ------- 0 3.0 0.0 73 163
+ 2.499321 4 2 ack 40 ------- 0 3.0 0.0 74 166
- 2.499321 4 2 ack 40 ------- 0 3.0 0.0 74 166
r 2.499362 4 2 ack 40 ------- 0 3.0 0.0 74 166
+ 2.509321 4 2 ack 40 ------- 0 3.0 0.0 75 168
- 2.509321 4 2 ack 40 ------- 0 3.0 0.0 75 168
r 2.509362 4 2 ack 40 ------- 0 3.0 0.0 75 168
+ 2.572003 4 2 ack 40 ------- 0 3.0 0.0 76 177
- 2.572003 4 2 ack 40 ------- 0 3.0 0.0 76 177
r 2.572044 4 2 ack 40 ------- 0 3.0 0.0 76 177
+ 2.582003 4 2 ack 40 ------- 0 3.0 0.0 77 181
- 2.582003 4 2 ack 40 ------- 0 3.0 0.0 77 181
r 2.582044 4 2 ack 40 ------- 0 3.0 0.0 77 181
+ 2.592003 4 2 ack 40 ------- 0 3.0 0.0 78 182
- 2.592003 4 2 ack 40 ------- 0 3.0 0.0 78 182
r 2.592044 4 2 ack 40 ------- 0 3.0 0.0 78 182
+ 2.602003 4 2 ack 40 ------- 0 3.0 0.0 79 184
- 2.602003 4 2 ack 40 ------- 0 3.0 0.0 79 184
r 2.602044 4 2 ack 40 ------- 0 3.0 0.0 79 184
+ 2.612003 4 2 ack 40 ------- 0 3.0 0.0 80 186
- 2.612003 4 2 ack 40 ------- 0 3.0 0.0 80 186
r 2.612044 4 2 ack 40 ------- 0 3.0 0.0 80 186
+ 2.622003 4 2 ack 40 ------- 0 3.0 0.0 81 187
- 2.622003 4 2 ack 40 ------- 0 3.0 0.0 81 187
r 2.622044 4 2 ack 40 ------- 0 3.0 0.0 81 187
+ 2.632003 4 2 ack 40 ------- 0 3.0 0.0 82 188
- 2.632003 4 2 ack 40 ------- 0 3.0 0.0 82 188
r 2.632044 4 2 ack 40 ------- 0 3.0 0.0 82 188
+ 2.642003 4 2 ack 40 ------- 0 3.0 0.0 83 189
- 2.642003 4 2 ack 40 ------- 0 3.0 0.0 83 189
r 2.642044 4 2 ack 40 ------- 0 3.0 0.0 83 189
+ 2.652003 4 2 ack 40 ------- 0 3.0 0.0 84 190
- 2.652003 4 2 ack 40 ------- 0 3.0 0.0 84 190
r 2.652044 4 2 ack 40 ------- 0 3.0 0.0 84 190
+ 2.662003 4 2 ack 40 ------- 0 3.0 0.0 85 191
- 2.662003 4 2 ack 40 ------- 0 3.0 0.0 85 191
r 2.662044 4 2 ack 40 ------- 0 3.0 0.0 85 191
+ 2.672003 4 2 ack 40 ------- 0 3.0 0.0 86 192
- 2.672003 4 2 ack 40 ------- 0 3.0 0.0 86 192
r 2.672044 4 2 ack 40 ------- 0 3.0 0.0 86 192
+ 2.692003 4 2 ack 40 ------- 0 3.0 0.0 87 196
- 2.692003 4 2 ack 40 ------- 0 3.0 0.0 87 196
r 2.692044 4 2 ack 40 ------- 0 3.0 0.0 87 196
+ 2.712003 4 2 ack 40 ------- 0 3.0 0.0 88 199
- 2.712003 4 2 ack 40 ------- 0 3.0 0.0 88 199
r 2.712044 4 2 ack 40 ------- 0 3.0 0.0 88 199
+ 2.722003 4 2 ack 40 ------- 0 3.0 0.0 89 201
- 2.722003 4 2 ack 40 ------- 0 3.0 0.0 89 201
r 2.722044 4 2 ack 40 ------- 0 3.0 0.0 89 201
+ 2.784685 4 2 ack 40 ------- 0 3.0 0.0 90 208
- 2.784685 4 2 ack 40 ------- 0 3.0 0.0 90 208
r 2.784726 4 2 ack 40 ------- 0 3.0 0.0 90 208
+ 2.794685 4 2 ack 40 ------- 0 3.0 0.0 91 210
- 2.794685 4 2 ack 40 ------- 0 3.0 0.0 91 210
r 2.794726 4 2 ack 40 ------- 0 3.0 0.0 91 210
+ 2.804685 4 2 ack 40 ------- 0 3.0 0.0 92 211
- 2.804685 4 2 ack 40 ------- 0 3.0 0.0 92 211
r 2.804726 4 2 ack 40 ------- 0 3.0 0.0 92 211
+ 2.814685 4 2 ack 40 ------- 0 3.0 0.0 93 213
- 2.814685 4 2 ack 40 ------- 0 3.0 0.0 93 213
r 2.814726 4 2 ack 40 ------- 0 3.0 0.0 93 213
+ 2.824685 4 2 ack 40 ------- 0 3.0 0.0 94 215
- 2.824685 4 2 ack 40 ------- 0 3.0 0.0 94 215
r 2.824726 4 2 ack 40 ------- 0 3.0 0.0 94 215
+ 2.834685 4 2 ack 40 ------- 0 3.0 0.0 95 216
- 2.834685 4 2 ack 40 ------- 0 3.0 0.0 95 216
r 2.834726 4 2 ack 40 ------- 0 3.0 0.0 95 216
+ 2.844685 4 2 ack 40 ------- 0 3.0 0.0 96 217
- 2.844685 4 2 ack 40 ------- 0 3.0 0.0 96 217
r 2.844726 4 2 ack 40 ------- 0 3.0 0.0 96 217
+ 2.854685 4 2 ack 40 ------- 0 3.0 0.0 97 218
- 2.854685 4 2 ack 40 ------- 0 3.0 0.0 97 218
r 2.854726 4 2 ack 40 ------- 0 3.0 0.0 97 218
+ 2.864685 4 2 ack 40 ------- 0 3.0 0.0 98 219
- 2.864685 4 2 ack 40 ------- 0 3.0 0.0 98 219
r 2.864726 4 2 ack 40 ------- 0 3.0 0.0 98 219
+ 2.874685 4 2 ack 40 ------- 0 3.0 0.0 99 220
- 2.874685 4 2 ack 40 ------- 0 3.0 0.0 99 220
r 2.874726 4 2 ack 40 ------- 0 3.0 0.0 99 220
+ 2.884685 4 2 ack 40 ------- 1 3.1 1.0 6 221
- 2.884685 4 2 ack 40 ------- 1 3.1 1.0 6 221
r 2.884726 4 2 ack 40 ------- 1 3.1 1.0 6 221
+ 2.894685 4 2 ack 40 ------- 1 3.1 1.0 7 223
- 2.894685 4 2 ack 40 ------- 1 3.1 1.0 7 223
r 2.894726 4 2 ack 40 ------- 1 3.1 1.0 7 223
+ 2.904685 4 2 ack 40 ------- 0 3.0 0.0 100 226
- 2.904685 4 2 ack 40 ------- 0 3.0 0.0 100 226
r 2.904726 4 2 ack 40 ------- 0 3.0 0.0 100 226
+ 2.914685 4 2 ack 40 ------- 0 3.0 0.0 101 228
- 2.914685 4 2 ack 40 ------- 0 3.0 0.0 101 228
r 2.914726 4 2 ack 40 ------- 0 3.0 0.0 101 228
+ 2.924685 4 2 ack 40 ------- 1 3.1 1.0 8 230
- 2.924685 4 2 ack 40 ------- 1 3.1 1.0 8 230
r 2.924726 4 2 ack 40 ------- 1 3.1 1.0 8 230
+ 2.934685 4 2 ack 40 ------- 1 3.1 1.0 9 232
- 2.934685 4 2 ack 40 ------- 1 3.1 1.0 9 232
r 2.934726 4 2 ack 40 ------- 1 3.1 1.0 9 232
+ 2.944685 4 2 ack 40 ------- 0 3.0 0.0 102 234
- 2.944685 4 2 ack 40 ------- 0 3.0 0.0 102 234
r 2.944726 4 2 ack 40 ------- 0 3.0 0.0 102 234
+ 2.954685 4 2 ack 40 ------- 0 3.0 0.0 103 236
- 2.954685 4 2 ack 40 ------- 0 3.0 0.0 103 236
r 2.954726 4 2 ack 40 ------- 0 3.0 0.0 103 236
+ 2.964685 4 2 ack 40 ------- 0 3.0 0.0 104 238
- 2.964685 4 2 ack 40 ------- 0 3.0 0.0 104 238
r 2.964726 4 2 ack 40 ------- 0 3.0 0.0 104 238
+ 2.997367 4 2 ack 40 ------- 0 3.0 0.0 105 241
- 2.997367 4 2 ack 40 ------- 0 3.0 0.0 105 241
r 2.997408 4 2 ack 40 ------- 0 3.0 0.0 105 241
+ 3.007367 4 2 ack 40 ------- 0 3.0 0.0 106 243
- 3.007367 4 2 ack 40 ------- 0 3.0 0.0 106 243
r 3.007408 4 2 ack 40 ------- 0 3.0 0.0 106 243
+ 3.017367 4 2 ack 40 ------- 0 3.0 0.0 107 245
- 3.017367 4 2 ack 40 ------- 0 3.0 0.0 107 245
r 3.017408 4 2 ack 40 ------- 0 3.0 0.0 107 245
+ 3.027367 4 2 ack 40 ------- 0 3.0 0.0 108 246
- 3.027367 4 2 ack 40 ------- 0 3.0 0.0 108 246
r 3.027408 4 2 ack 40 ------- 0 3.0 0.0 108 246
+ 3.037367 4 2 ack 40 ------- 0 3.0 0.0 109 247
- 3.037367 4 2 ack 40 ------- 0 3.0 0.0 109 247
r 3.037408 4 2 ack 40 ------- 0 3.0 0.0 109 247
+ 3.047367 4 2 ack 40 ------- 0 3.0 0.0 110 249
- 3.047367 4 2 ack 40 ------- 0 3.0 0.0 110 249
r 3.047408 4 2 ack 40 ------- 0 3.0 0.0 110 249
+ 3.057367 4 2 ack 40 ------- 0 3.0 0.0 111 251
- 3.057367 4 2 ack 40 ------- 0 3.0 0.0 111 251
r 3.057408 4 2 ack 40 ------- 0 3.0 0.0 111 251
+ 3.067367 4 2 ack 40 ------- 0 3.0 0.0 112 253
- 3.067367 4 2 ack 40 ------- 0 3.0 0.0 112 253
r 3.067408 4 2 ack 40 ------- 0 3.0 0.0 112 253
+ 3.077367 4 2 ack 40 ------- 0 3.0 0.0 113 254
- 3.077367 4 2 ack 40 ------- 0 3.0 0.0 113 254
r 3.077408 4 2 ack 40 ------- 0 3.0 0.0 113 254
+ 3.087367 4 2 ack 40 ------- 0 3.0 0.0 114 255
- 3.087367 4 2 ack 40 ------- 0 3.0 0.0 114 255
r 3.087408 4 2 ack 40 ------- 0 3.0 0.0 114 255
+ 3.097367 4 2 ack 40 ------- 0 3.0 0.0 115 256
- 3.097367 4 2 ack 40 ------- 0 3.0 0.0 115 256
r 3.097408 4 2 ack 40 ------- 0 3.0 0.0 115 256
+ 3.117367 4 2 ack 40 ------- 0 3.0 0.0 116 259
- 3.117367 4 2 ack 40 ------- 0 3.0 0.0 116 259
r 3.117408 4 2 ack 40 ------- 0 3.0 0.0 116 259
+ 3.127367 4 2 ack 40 ------- 0 3.0 0.0 117 261
- 3.127367 4 2 ack 40 ------- 0 3.0 0.0 117 261
r 3.127408 4 2 ack 40 ------- 0 3.0 0.0 117 261
+ 3.157367 4 2 ack 40 ------- 0 3.0 0.0 118 265
- 3.157367 4 2 ack 40 ------- 0 3.0 0.0 118 265
r 3.157408 4 2 ack 40 ------- 0 3.0 0.0 118 265
+ 3.167367 4 2 ack 40 ------- 0 3.0 0.0 119 267
- 3.167367 4 2 ack 40 ------- 0 3.0 0.0 119 267
r 3.167408 4 2 ack 40 ------- 0 3.0 0.0 119 267
+ 3.177367 4 2 ack 40 ------- 0 3.0 0.0 120 269
- 3.177367 4 2 ack 40 ------- 0 3.0 0.0 120 269
r 3.177408 4 2 ack 40 ------- 0 3.0 0.0 120 269
+ 3.210049 4 2 ack 40 ------- 0 3.0 0.0 121 275
- 3.210049 4 2 ack 40 ------- 0 3.0 0.0 121 275
r 3.21009 4 2 ack 40 ------- 0 3.0 0.0 121 275
+ 3.220049 4 2 ack 40 ------- 0 3.0 0.0 122 277
- 3.220049 4 2 ack 40 ------- 0 3.0 0.0 122 277
r 3.22009 4 2 ack 40 ------- 0 3.0 0.0 122 277
+ 3.230049 4 2 ack 40 ------- 0 3.0 0.0 123 280
- 3.230049 4 2 ack 40 ------- 0 3.0 0.0 123 280
r 3.23009 4 2 ack 40 ------- 0 3.0 0.0 123 280
+ 3.240049 4 2 ack 40 ------- 0 3.0 0.0 124 282
- 3.240049 4 2 ack 40 ------- 0 3.0 0.0 124 282
r 3.24009 4 2 ack 40 ------- 0 3.0 0.0 124 282
+ 3.250049 4 2 ack 40 ------- 0 3.0 0.0 125 283
- 3.250049 4 2 ack 40 ------- 0 3.0 0.0 125 283
r 3.25009 4 2 ack 40 ------- 0 3.0 0.0 125 283
+ 3.260049 4 2 ack 40 ------- 0 3.0 0.0 126 285
- 3.260049 4 2 ack 40 ------- 0 3.0 0.0 126 285
r 3.26009 4 2 ack 40 ------- 0 3.0 0.0 126 285
+ 3.270049 4 2 ack 40 ------- 0 3.0 0.0 127 287
- 3.270049 4 2 ack 40 ------- 0 3.0 0.0 127 287
r 3.27009 4 2 ack 40 ------- 0 3.0 0.0 127 287
+ 3.280049 4 2 ack 40 ------- 0 3.0 0.0 128 289
- 3.280049 4 2 ack 40 ------- 0 3.0 0.0 128 289
r 3.28009 4 2 ack 40 ------- 0 3.0 0.0 128 289
+ 3.290049 4 2 ack 40 ------- 0 3.0 0.0 129 290
- 3.290049 4 2 ack 40 ------- 0 3.0 0.0 129 290
r 3.29009 4 2 ack 40 ------- 0 3.0 0.0 129 290
+ 3.300049 4 2 ack 40 ------- 0 3.0 0.0 130 291
- 3.300049 4 2 ack 40 ------- 0 3.0 0.0 130 291
r 3.30009 4 2 ack 40 ------- 0 3.0 0.0 130 291
+ 3.310049 4 2 ack 40 ------- 0 3.0 0.0 131 292
- 3.310049 4 2 ack 40 ------- 0 3.0 0.0 131 292
r 3.31009 4 2 ack 40 ------- 0 3.0 0.0 131 292
+ 3.330049 4 2 ack 40 ------- 0 3.0 0.0 132 295
- 3.330049 4 2 ack 40 ------- 0 3.0 0.0 132 295
r 3.33009 4 2 ack 40 ------- 0 3.0 0.0 132 295
+ 3.340049 4 2 ack 40 ------- 0 3.0 0.0 133 298
- 3.340049 4 2 ack 40 ------- 0 3.0 0.0 133 298
r 3.34009 4 2 ack 40 ------- 0 3.0 0.0 133 298
+ 3.370049 4 2 ack 40 ------- 0 3.0 0.0 134 302
- 3.370049 4 2 ack 40 ------- 0 3.0 0.0 134 302
r 3.37009 4 2 ack 40 ------- 0 3.0 0.0 134 302
+ 3.380049 4 2 ack 40 ------- 0 3.0 0.0 135 304
- 3.380049 4 2 ack 40 ------- 0 3.0 0.0 135 304
r 3.38009 4 2 ack 40 ------- 0 3.0 0.0 135 304
+ 3.390049 4 2 ack 40 ------- 0 3.0 0.0 136 306
- 3.390049 4 2 ack 40 ------- 0 3.0 0.0 136 306
r 3.39009 4 2 ack 40 ------- 0 3.0 0.0 136 306
+ 3.422731 4 2 ack 40 ------- 0 3.0 0.0 137 310
- 3.422731 4 2 ack 40 ------- 0 3.0 0.0 137 310
r 3.422772 4 2 ack 40 ------- 0 3.0 0.0 137 310
+ 3.432731 4 2 ack 40 ------- 0 3.0 0.0 138 312
- 3.432731 4 2 ack 40 ------- 0 3.0 0.0 138 312
r 3.432772 4 2 ack 40 ------- 0 3.0 0.0 138 312
+ 3.442731 4 2 ack 40 ------- 0 3.0 0.0 139 314
- 3.442731 4 2 ack 40 ------- 0 3.0 0.0 139 314
r 3.442772 4 2 ack 40 ------- 0 3.0 0.0 139 314
+ 3.452731 4 2 ack 40 ------- 0 3.0 0.0 140 315
- 3.452731 4 2 ack 40 ------- 0 3.0 0.0 140 315
r 3.452772 4 2 ack 40 ------- 0 3.0 0.0 140 315
+ 3.462731 4 2 ack 40 ------- 0 3.0 0.0 141 316
- 3.462731 4 2 ack 40 ------- 0 3.0 0.0 141 316
r 3.462772 4 2 ack 40 ------- 0 3.0 0.0 141 316
+ 3.472731 4 2 ack 40 ------- 0 3.0 0.0 142 318
- 3.472731 4 2 ack 40 ------- 0 3.0 0.0 142 318
r 3.472772 4 2 ack 40 ------- 0 3.0 0.0 142 318
+ 3.482731 4 2 ack 40 ------- 0 3.0 0.0 143 320
- 3.482731 4 2 ack 40 ------- 0 3.0 0.0 143 320
r 3.482772 4 2 ack 40 ------- 0 3.0 0.0 143 320
+ 3.492731 4 2 ack 40 ------- 0 3.0 0.0 144 322
- 3.492731 4 2 ack 40 ------- 0 3.0 0.0 144 322
r 3.492772 4 2 ack 40 ------- 0 3.0 0.0 144 322
+ 3.502731 4 2 ack 40 ------- 0 3.0 0.0 145 323
- 3.502731 4 2 ack 40 ------- 0 3.0 0.0 145 323
r 3.502772 4 2 ack 40 ------- 0 3.0 0.0 145 323
+ 3.512731 4 2 ack 40 ------- 1 3.1 1.0 10 324
- 3.512731 4 2 ack 40 ------- 1 3.1 1.0 10 324
r 3.512772 4 2 ack 40 ------- 1 3.1 1.0 10 324
+ 3.522731 4 2 ack 40 ------- 0 3.0 0.0 146 325
- 3.522731 4 2 ack 40 ------- 0 3.0 0.0 146 325
r 3.522772 4 2 ack 40 ------- 0 3.0 0.0 146 325
+ 3.532731 4 2 ack 40 ------- 1 3.1 1.0 11 327
- 3.532731 4 2 ack 40 ------- 1 3.1 1.0 11 327
r 3.532772 4 2 ack 40 ------- 1 3.1 1.0 11 327
+ 3.542731 4 2 ack 40 ------- 0 3.0 0.0 147 329
- 3.542731 4 2 ack 40 ------- 0 3.0 0.0 147 329
r 3.542772 4 2 ack 40 ------- 0 3.0 0.0 147 329
+ 3.552731 4 2 ack 40 ------- 0 3.0 0.0 148 331
- 3.552731 4 2 ack 40 ------- 0 3.0 0.0 148 331
r 3.552772 4 2 ack 40 ------- 0 3.0 0.0 148 331
+ 3.562731 4 2 ack 40 ------- 1 3.1 1.0 12 334
- 3.562731 4 2 ack 40 ------- 1 3.1 1.0 12 334
r 3.562772 4 2 ack 40 ------- 1 3.1 1.0 12 334
+ 3.572731 4 2 ack 40 ------- 0 3.0 0.0 149 336
- 3.572731 4 2 ack 40 ------- 0 3.0 0.0 149 336
r 3.572772 4 2 ack 40 ------- 0 3.0 0.0 149 336
+ 3.582731 4 2 ack 40 ------- 1 3.1 1.0 13 338
- 3.582731 4 2 ack 40 ------- 1 3.1 1.0 13 338
r 3.582772 4 2 ack 40 ------- 1 3.1 1.0 13 338
+ 3.592731 4 2 ack 40 ------- 0 3.0 0.0 150 340
- 3.592731 4 2 ack 40 ------- 0 3.0 0.0 150 340
r 3.592772 4 2 ack 40 ------- 0 3.0 0.0 150 340
+ 3.602731 4 2 ack 40 ------- 0 3.0 0.0 151 342
- 3.602731 4 2 ack 40 ------- 0 3.0 0.0 151 342
r 3.602772 4 2 ack 40 ------- 0 3.0 0.0 151 342
+ 3.612731 4 2 ack 40 ------- 0 3.0 0.0 152 344
- 3.612731 4 2 ack 40 ------- 0 3.0 0.0 152 344
r 3.612772 4 2 ack 40 ------- 0 3.0 0.0 152 344
+ 3.622731 4 2 ack 40 ------- 0 3.0 0.0 153 345
- 3.622731 4 2 ack 40 ------- 0 3.0 0.0 153 345
r 3.622772 4 2 ack 40 ------- 0 3.0 0.0 153 345
+ 3.635413 4 2 ack 40 ------- 0 3.0 0.0 154 347
- 3.635413 4 2 ack 40 ------- 0 3.0 0.0 154 347
r 3.635454 4 2 ack 40 ------- 0 3.0 0.0 154 347
+ 3.645413 4 2 ack 40 ------- 0 3.0 0.0 155 349
- 3.645413 4 2 ack 40 ------- 0 3.0 0.0 155 349
r 3.645454 4 2 ack 40 ------- 0 3.0 0.0 155 349
+ 3.655413 4 2 ack 40 ------- 0 3.0 0.0 156 351
- 3.655413 4 2 ack 40 ------- 0 3.0 0.0 156 351
r 3.655454 4 2 ack 40 ------- 0 3.0 0.0 156 351
+ 3.665413 4 2 ack 40 ------- 0 3.0 0.0 157 352
- 3.665413 4 2 ack 40 ------- 0 3.0 0.0 157 352
r 3.665454 4 2 ack 40 ------- 0 3.0 0.0 157 352
+ 3.675413 4 2 ack 40 ------- 0 3.0 0.0 158 354
- 3.675413 4 2 ack 40 ------- 0 3.0 0.0 158 354
r 3.675454 4 2 ack 40 ------- 0 3.0 0.0 158 354
+ 3.685413 4 2 ack 40 ------- 0 3.0 0.0 159 355
- 3.685413 4 2 ack 40 ------- 0 3.0 0.0 159 355
r 3.685454 4 2 ack 40 ------- 0 3.0 0.0 159 355
+ 3.695413 4 2 ack 40 ------- 0 3.0 0.0 160 357
- 3.695413 4 2 ack 40 ------- 0 3.0 0.0 160 357
r 3.695454 4 2 ack 40 ------- 0 3.0 0.0 160 357
+ 3.705413 4 2 ack 40 ------- 0 3.0 0.0 161 359
- 3.705413 4 2 ack 40 ------- 0 3.0 0.0 161 359
r 3.705454 4 2 ack 40 ------- 0 3.0 0.0 161 359
+ 3.715413 4 2 ack 40 ------- 0 3.0 0.0 162 361
- 3.715413 4 2 ack 40 ------- 0 3.0 0.0 162 361
r 3.715454 4 2 ack 40 ------- 0 3.0 0.0 162 361
+ 3.725413 4 2 ack 40 ------- 0 3.0 0.0 163 363
- 3.725413 4 2 ack 40 ------- 0 3.0 0.0 163 363
r 3.725454 4 2 ack 40 ------- 0 3.0 0.0 163 363
+ 3.735413 4 2 ack 40 ------- 0 3.0 0.0 164 364
- 3.735413 4 2 ack 40 ------- 0 3.0 0.0 164 364
r 3.735454 4 2 ack 40 ------- 0 3.0 0.0 164 364
+ 3.755413 4 2 ack 40 ------- 0 3.0 0.0 165 367
- 3.755413 4 2 ack 40 ------- 0 3.0 0.0 165 367
r 3.755454 4 2 ack 40 ------- 0 3.0 0.0 165 367
+ 3.765413 4 2 ack 40 ------- 0 3.0 0.0 166 369
- 3.765413 4 2 ack 40 ------- 0 3.0 0.0 166 369
r 3.765454 4 2 ack 40 ------- 0 3.0 0.0 166 369
+ 3.785413 4 2 ack 40 ------- 0 3.0 0.0 167 372
- 3.785413 4 2 ack 40 ------- 0 3.0 0.0 167 372
r 3.785454 4 2 ack 40 ------- 0 3.0 0.0 167 372
+ 3.805413 4 2 ack 40 ------- 0 3.0 0.0 168 375
- 3.805413 4 2 ack 40 ------- 0 3.0 0.0 168 375
r 3.805454 4 2 ack 40 ------- 0 3.0 0.0 168 375
+ 3.815413 4 2 ack 40 ------- 0 3.0 0.0 169 379
- 3.815413 4 2 ack 40 ------- 0 3.0 0.0 169 379
r 3.815454 4 2 ack 40 ------- 0 3.0 0.0 169 379
+ 3.825413 4 2 ack 40 ------- 0 3.0 0.0 170 381
- 3.825413 4 2 ack 40 ------- 0 3.0 0.0 170 381
r 3.825454 4 2 ack 40 ------- 0 3.0 0.0 170 381
+ 3.835413 4 2 ack 40 ------- 0 3.0 0.0 171 385
- 3.835413 4 2 ack 40 ------- 0 3.0 0.0 171 385
r 3.835454 4 2 ack 40 ------- 0 3.0 0.0 171 385
+ 3.848095 4 2 ack 40 ------- 0 3.0 0.0 172 387
- 3.848095 4 2 ack 40 ------- 0 3.0 0.0 172 387
r 3.848136 4 2 ack 40 ------- 0 3.0 0.0 172 387
+ 3.858095 4 2 ack 40 ------- 0 3.0 0.0 173 389
- 3.858095 4 2 ack 40 ------- 0 3.0 0.0 173 389
r 3.858136 4 2 ack 40 ------- 0 3.0 0.0 173 389
+ 3.868095 4 2 ack 40 ------- 0 3.0 0.0 174 393
- 3.868095 4 2 ack 40 ------- 0 3.0 0.0 174 393
r 3.868136 4 2 ack 40 ------- 0 3.0 0.0 174 393
+ 3.878095 4 2 ack 40 ------- 0 3.0 0.0 175 394
- 3.878095 4 2 ack 40 ------- 0 3.0 0.0 175 394
r 3.878136 4 2 ack 40 ------- 0 3.0 0.0 175 394
+ 3.888095 4 2 ack 40 ------- 0 3.0 0.0 176 398
- 3.888095 4 2 ack 40 ------- 0 3.0 0.0 176 398
r 3.888136 4 2 ack 40 ------- 0 3.0 0.0 176 398
+ 3.898095 4 2 ack 40 ------- 0 3.0 0.0 177 399
- 3.898095 4 2 ack 40 ------- 0 3.0 0.0 177 399
r 3.898136 4 2 ack 40 ------- 0 3.0 0.0 177 399
+ 3.908095 4 2 ack 40 ------- 0 3.0 0.0 178 401
- 3.908095 4 2 ack 40 ------- 0 3.0 0.0 178 401
r 3.908136 4 2 ack 40 ------- 0 3.0 0.0 178 401
+ 3.918095 4 2 ack 40 ------- 0 3.0 0.0 179 403
- 3.918095 4 2 ack 40 ------- 0 3.0 0.0 179 403
r 3.918136 4 2 ack 40 ------- 0 3.0 0.0 179 403
+ 3.928095 4 2 ack 40 ------- 0 3.0 0.0 180 405
- 3.928095 4 2 ack 40 ------- 0 3.0 0.0 180 405
r 3.928136 4 2 ack 40 ------- 0 3.0 0.0 180 405
+ 3.938095 4 2 ack 40 ------- 0 3.0 0.0 181 407
- 3.938095 4 2 ack 40 ------- 0 3.0 0.0 181 407
r 3.938136 4 2 ack 40 ------- 0 3.0 0.0 181 407
+ 3.948095 4 2 ack 40 ------- 0 3.0 0.0 182 408
- 3.948095 4 2 ack 40 ------- 0 3.0 0.0 182 408
r 3.948136 4 2 ack 40 ------- 0 3.0 0.0 182 408
+ 3.968095 4 2 ack 40 ------- 0 3.0 0.0 183 411
- 3.968095 4 2 ack 40 ------- 0 3.0 0.0 183 411
r 3.968136 4 2 ack 40 ------- 0 3.0 0.0 183 411
+ 3.978095 4 2 ack 40 ------- 0 3.0 0.0 184 413
- 3.978095 4 2 ack 40 ------- 0 3.0 0.0 184 413
r 3.978136 4 2 ack 40 ------- 0 3.0 0.0 184 413
+ 3.998095 4 2 ack 40 ------- 0 3.0 0.0 185 417
- 3.998095 4 2 ack 40 ------- 0 3.0 0.0 185 417
r 3.998136 4 2 ack 40 ------- 0 3.0 0.0 185 417
+ 4.018095 4 2 ack 40 ------- 0 3.0 0.0 186 420
- 4.018095 4 2 ack 40 ------- 0 3.0 0.0 186 420
r 4.018136 4 2 ack 40 ------- 0 3.0 0.0 186 420
+ 4.028095 4 2 ack 40 ------- 0 3.0 0.0 187 422
- 4.028095 4 2 ack 40 ------- 0 3.0 0.0 187 422
r 4.028136 4 2 ack 40 ------- 0 3.0 0.0 187 422
+ 4.038095 4 2 ack 40 ------- 0 3.0 0.0 188 424
- 4.038095 4 2 ack 40 ------- 0 3.0 0.0 188 424
r 4.038136 4 2 ack 40 ------- 0 3.0 0.0 188 424
+ 4.048095 4 2 ack 40 ------- 0 3.0 0.0 189 426
- 4.048095 4 2 ack 40 ------- 0 3.0 0.0 189 426
r 4.048136 4 2 ack 40 ------- 0 3.0 0.0 189 426
+ 4.060777 4 2 ack 40 ------- 0 3.0 0.0 190 428
- 4.060777 4 2 ack 40 ------- 0 3.0 0.0 190 428
r 4.060818 4 2 ack 40 ------- 0 3.0 0.0 190 428
+ 4.070777 4 2 ack 40 ------- 0 3.0 0.0 191 430
- 4.070777 4 2 ack 40 ------- 0 3.0 0.0 191 430
r 4.070818 4 2 ack 40 ------- 0 3.0 0.0 191 430
+ 4.080777 4 2 ack 40 ------- 0 3.0 0.0 192 432
- 4.080777 4 2 ack 40 ------- 0 3.0 0.0 192 432
r 4.080818 4 2 ack 40 ------- 0 3.0 0.0 192 432
+ 4.090777 4 2 ack 40 ------- 0 3.0 0.0 193 433
- 4.090777 4 2 ack 40 ------- 0 3.0 0.0 193 433
r 4.090818 4 2 ack 40 ------- 0 3.0 0.0 193 433
+ 4.100777 4 2 ack 40 ------- 0 3.0 0.0 194 435
- 4.100777 4 2 ack 40 ------- 0 3.0 0.0 194 435
r 4.100818 4 2 ack 40 ------- 0 3.0 0.0 194 435
+ 4.110777 4 2 ack 40 ------- 0 3.0 0.0 195 436
- 4.110777 4 2 ack 40 ------- 0 3.0 0.0 195 436
r 4.110818 4 2 ack 40 ------- 0 3.0 0.0 195 436
+ 4.120777 4 2 ack 40 ------- 0 3.0 0.0 196 438
- 4.120777 4 2 ack 40 ------- 0 3.0 0.0 196 438
r 4.120818 4 2 ack 40 ------- 0 3.0 0.0 196 438
+ 4.130777 4 2 ack 40 ------- 0 3.0 0.0 197 440
- 4.130777 4 2 ack 40 ------- 0 3.0 0.0 197 440
r 4.130818 4 2 ack 40 ------- 0 3.0 0.0 197 440
+ 4.140777 4 2 ack 40 ------- 1 3.1 1.0 14 442