+ 9.396413 2 1 tcp 1000 ------- 0 3.0 0.0 0 0
- 9.396413 2 1 tcp 1000 ------- 0 3.0 0.0 0 0
r 9.506413 2 1 tcp 1000 ------- 0 3.0 0.0 0 0
+ 9.709645 2 3 ack 40 ------- 0 0.0 3.0 0 1
- 9.709645 2 3 ack 40 ------- 0 0.0 3.0 0 1
r 9.710677 2 3 ack 40 ------- 0 0.0 3.0 0 1
+ 9.712477 2 1 tcp 1000 ------- 0 3.0 0.0 1 2
- 9.712477 2 1 tcp 1000 ------- 0 3.0 0.0 1 2
r 9.822477 2 1 tcp 1000 ------- 0 3.0 0.0 1 2
+ 10.025709 2 3 ack 40 ------- 0 0.0 3.0 1 3
- 10.025709 2 3 ack 40 ------- 0 0.0 3.0 1 3
r 10.026741 2 3 ack 40 ------- 0 0.0 3.0 1 3
+ 10.028541 2 1 tcp 1000 ------- 0 3.0 0.0 2 4
- 10.028541 2 1 tcp 1000 ------- 0 3.0 0.0 2 4
+ 10.029341 2 1 tcp 1000 ------- 0 3.0 0.0 3 5
- 10.038541 2 1 tcp 1000 ------- 0 3.0 0.0 3 5
r 10.138541 2 1 tcp 1000 ------- 0 3.0 0.0 2 4
r 10.148541 2 1 tcp 1000 ------- 0 3.0 0.0 3 5
+ 10.251773 2 3 ack 40 ------- 0 0.0 3.0 3 6
- 10.251773 2 3 ack 40 ------- 0 0.0 3.0 3 6
r 10.252805 2 3 ack 40 ------- 0 0.0 3.0 3 6
+ 10.254605 2 1 tcp 1000 ------- 0 3.0 0.0 4 7
- 10.254605 2 1 tcp 1000 ------- 0 3.0 0.0 4 7
+ 10.255405 2 1 tcp 1000 ------- 0 3.0 0.0 5 8
- 10.264605 2 1 tcp 1000 ------- 0 3.0 0.0 5 8
r 10.364605 2 1 tcp 1000 ------- 0 3.0 0.0 4 7
r 10.374605 2 1 tcp 1000 ------- 0 3.0 0.0 5 8
+ 10.477837 2 3 ack 40 ------- 0 0.0 3.0 5 9
- 10.477837 2 3 ack 40 ------- 0 0.0 3.0 5 9
r 10.478869 2 3 ack 40 ------- 0 0.0 3.0 5 9
+ 10.480669 2 1 tcp 1000 ------- 0 3.0 0.0 6 10
- 10.480669 2 1 tcp 1000 ------- 0 3.0 0.0 6 10
+ 10.481469 2 1 tcp 1000 ------- 0 3.0 0.0 7 11
+ 10.482269 2 1 tcp 1000 ------- 0 3.0 0.0 8 12
- 10.490669 2 1 tcp 1000 ------- 0 3.0 0.0 7 11
- 10.500669 2 1 tcp 1000 ------- 0 3.0 0.0 8 12
r 10.590669 2 1 tcp 1000 ------- 0 3.0 0.0 6 10
r 10.600669 2 1 tcp 1000 ------- 0 3.0 0.0 7 11
r 10.610669 2 1 tcp 1000 ------- 0 3.0 0.0 8 12
+ 10.703901 2 3 ack 40 ------- 0 0.0 3.0 7 13
- 10.703901 2 3 ack 40 ------- 0 0.0 3.0 7 13
r 10.704933 2 3 ack 40 ------- 0 0.0 3.0 7 13
+ 10.706733 2 1 tcp 1000 ------- 0 3.0 0.0 9 14
- 10.706733 2 1 tcp 1000 ------- 0 3.0 0.0 9 14
+ 10.813901 2 3 ack 40 ------- 0 0.0 3.0 8 15
- 10.813901 2 3 ack 40 ------- 0 0.0 3.0 8 15
r 10.814933 2 3 ack 40 ------- 0 0.0 3.0 8 15
r 10.816733 2 1 tcp 1000 ------- 0 3.0 0.0 9 14
+ 11.019965 2 3 ack 40 ------- 0 0.0 3.0 9 16
- 11.019965 2 3 ack 40 ------- 0 0.0 3.0 9 16
r 11.020997 2 3 ack 40 ------- 0 0.0 3.0 9 16
+ 31.268616 2 1 tcp 1000 ------- 0 3.0 0.0 10 17
- 31.268616 2 1 tcp 1000 ------- 0 3.0 0.0 10 17
+ 31.373971 2 1 tcp 1000 ------- 0 3.0 0.0 11 18
- 31.373971 2 1 tcp 1000 ------- 0 3.0 0.0 11 18
r 31.378616 2 1 tcp 1000 ------- 0 3.0 0.0 10 17
+ 31.479325 2 1 tcp 1000 ------- 0 3.0 0.0 12 19
- 31.479325 2 1 tcp 1000 ------- 0 3.0 0.0 12 19
r 31.483971 2 1 tcp 1000 ------- 0 3.0 0.0 11 18
+ 31.581848 2 3 ack 40 ------- 0 0.0 3.0 10 20
- 31.581848 2 3 ack 40 ------- 0 0.0 3.0 10 20
r 31.58288 2 3 ack 40 ------- 0 0.0 3.0 10 20
+ 31.58468 2 1 tcp 1000 ------- 0 3.0 0.0 13 21
- 31.58468 2 1 tcp 1000 ------- 0 3.0 0.0 13 21
r 31.589325 2 1 tcp 1000 ------- 0 3.0 0.0 12 19
+ 31.687203 2 3 ack 40 ------- 0 0.0 3.0 11 22
- 31.687203 2 3 ack 40 ------- 0 0.0 3.0 11 22
r 31.688235 2 3 ack 40 ------- 0 0.0 3.0 11 22
+ 31.690035 2 1 tcp 1000 ------- 0 3.0 0.0 14 23
- 31.690035 2 1 tcp 1000 ------- 0 3.0 0.0 14 23
r 31.69468 2 1 tcp 1000 ------- 0 3.0 0.0 13 21
+ 31.792557 2 3 ack 40 ------- 0 0.0 3.0 12 24
- 31.792557 2 3 ack 40 ------- 0 0.0 3.0 12 24
r 31.793589 2 3 ack 40 ------- 0 0.0 3.0 12 24
+ 31.795389 2 1 tcp 1000 ------- 0 3.0 0.0 15 25
- 31.795389 2 1 tcp 1000 ------- 0 3.0 0.0 15 25
r 31.800035 2 1 tcp 1000 ------- 0 3.0 0.0 14 23
+ 31.897912 2 3 ack 40 ------- 0 0.0 3.0 13 26
- 31.897912 2 3 ack 40 ------- 0 0.0 3.0 13 26
r 31.898944 2 3 ack 40 ------- 0 0.0 3.0 13 26
+ 31.900744 2 1 tcp 1000 ------- 0 3.0 0.0 16 27
- 31.900744 2 1 tcp 1000 ------- 0 3.0 0.0 16 27
+ 31.901544 2 1 tcp 1000 ------- 0 3.0 0.0 17 28
r 31.905389 2 1 tcp 1000 ------- 0 3.0 0.0 15 25
- 31.910744 2 1 tcp 1000 ------- 0 3.0 0.0 17 28
+ 32.003267 2 3 ack 40 ------- 0 0.0 3.0 14 29
- 32.003267 2 3 ack 40 ------- 0 0.0 3.0 14 29
r 32.004299 2 3 ack 40 ------- 0 0.0 3.0 14 29
+ 32.006099 2 1 tcp 1000 ------- 0 3.0 0.0 18 30
- 32.006099 2 1 tcp 1000 ------- 0 3.0 0.0 18 30
+ 32.006899 2 1 tcp 1000 ------- 0 3.0 0.0 19 31
r 32.010744 2 1 tcp 1000 ------- 0 3.0 0.0 16 27
- 32.016099 2 1 tcp 1000 ------- 0 3.0 0.0 19 31
r 32.020744 2 1 tcp 1000 ------- 0 3.0 0.0 17 28
+ 32.108621 2 3 ack 40 ------- 0 0.0 3.0 15 32
- 32.108621 2 3 ack 40 ------- 0 0.0 3.0 15 32
r 32.109653 2 3 ack 40 ------- 0 0.0 3.0 15 32
r 32.116099 2 1 tcp 1000 ------- 0 3.0 0.0 18 30
+ 32.123976 2 3 ack 40 ------- 0 0.0 3.0 17 33
- 32.123976 2 3 ack 40 ------- 0 0.0 3.0 17 33
r 32.125008 2 3 ack 40 ------- 0 0.0 3.0 17 33
r 32.126099 2 1 tcp 1000 ------- 0 3.0 0.0 19 31
+ 32.229331 2 3 ack 40 ------- 0 0.0 3.0 19 34
- 32.229331 2 3 ack 40 ------- 0 0.0 3.0 19 34
r 32.230363 2 3 ack 40 ------- 0 0.0 3.0 19 34
+ 50.37775 2 1 tcp 1000 ------- 0 3.0 0.0 20 35
- 50.37775 2 1 tcp 1000 ------- 0 3.0 0.0 20 35
+ 50.422963 2 1 tcp 1000 ------- 0 3.0 0.0 21 36
- 50.422963 2 1 tcp 1000 ------- 0 3.0 0.0 21 36
+ 50.468176 2 1 tcp 1000 ------- 0 3.0 0.0 22 37
- 50.468176 2 1 tcp 1000 ------- 0 3.0 0.0 22 37
r 50.48775 2 1 tcp 1000 ------- 0 3.0 0.0 20 35
+ 50.513389 2 1 tcp 1000 ------- 0 3.0 0.0 23 38
- 50.513389 2 1 tcp 1000 ------- 0 3.0 0.0 23 38
r 50.532963 2 1 tcp 1000 ------- 0 3.0 0.0 21 36
+ 50.558602 2 1 tcp 1000 ------- 0 3.0 0.0 24 40
- 50.558602 2 1 tcp 1000 ------- 0 3.0 0.0 24 40
r 50.578176 2 1 tcp 1000 ------- 0 3.0 0.0 22 37
r 50.623389 2 1 tcp 1000 ------- 0 3.0 0.0 23 38
+ 50.636195 2 3 ack 40 ------- 0 0.0 3.0 21 39
- 50.636195 2 3 ack 40 ------- 0 0.0 3.0 21 39
r 50.637227 2 3 ack 40 ------- 0 0.0 3.0 21 39
+ 50.639027 2 1 tcp 1000 ------- 0 3.0 0.0 25 42
- 50.639027 2 1 tcp 1000 ------- 0 3.0 0.0 25 42
+ 50.639827 2 1 tcp 1000 ------- 0 3.0 0.0 26 43
+ 50.640627 2 1 tcp 1000 ------- 0 3.0 0.0 27 44
- 50.649027 2 1 tcp 1000 ------- 0 3.0 0.0 26 43
- 50.659027 2 1 tcp 1000 ------- 0 3.0 0.0 27 44
r 50.668602 2 1 tcp 1000 ------- 0 3.0 0.0 24 40
+ 50.726621 2 3 ack 40 ------- 0 0.0 3.0 23 41
- 50.726621 2 3 ack 40 ------- 0 0.0 3.0 23 41
r 50.727653 2 3 ack 40 ------- 0 0.0 3.0 23 41
+ 50.729453 2 1 tcp 1000 ------- 0 3.0 0.0 28 45
- 50.729453 2 1 tcp 1000 ------- 0 3.0 0.0 28 45
+ 50.730253 2 1 tcp 1000 ------- 0 3.0 0.0 29 46
- 50.739453 2 1 tcp 1000 ------- 0 3.0 0.0 29 46
r 50.749027 2 1 tcp 1000 ------- 0 3.0 0.0 25 42
r 50.759027 2 1 tcp 1000 ------- 0 3.0 0.0 26 43
r 50.769027 2 1 tcp 1000 ------- 0 3.0 0.0 27 44
r 50.839453 2 1 tcp 1000 ------- 0 3.0 0.0 28 45
r 50.849453 2 1 tcp 1000 ------- 0 3.0 0.0 29 46
+ 50.852259 2 3 ack 40 ------- 0 0.0 3.0 25 47
- 50.852259 2 3 ack 40 ------- 0 0.0 3.0 25 47
r 50.853291 2 3 ack 40 ------- 0 0.0 3.0 25 47
+ 50.872259 2 3 ack 40 ------- 0 0.0 3.0 27 48
- 50.872259 2 3 ack 40 ------- 0 0.0 3.0 27 48
r 50.873291 2 3 ack 40 ------- 0 0.0 3.0 27 48
+ 50.952685 2 3 ack 40 ------- 0 0.0 3.0 29 49
- 50.952685 2 3 ack 40 ------- 0 0.0 3.0 29 49
r 50.953717 2 3 ack 40 ------- 0 0.0 3.0 29 49
